ANIMSTEPS  252
CRYSTAL
PRIMVEC
    7.722227846    0.000000000    0.000000000
    0.000000000    8.140996918    0.000000000
    0.000000000    0.000000000   18.595195812
PRIMCOORD    1
     84   1
   H      7.34593   5.59032   9.07864  -0.00605   0.00907  -0.00051
   H      4.23741   2.55067  18.37624  -0.00605   0.00907  -0.00051
   H      0.37630   1.51983   0.21896  -0.00605   0.00907  -0.00051
   H      3.48482   6.62117   9.51655  -0.00605   0.00907  -0.00051
   H      1.12430   5.72688  10.03211  -0.00605   0.00907  -0.00051
   H      2.73682   2.41411   0.73451  -0.00605   0.00907  -0.00051
   H      6.59793   1.65638  17.86068  -0.00605   0.00907  -0.00051
   H      4.98541   6.48461   8.56309  -0.00605   0.00907  -0.00051
   H      6.30715   4.23738  10.94843  -0.00605   0.00907  -0.00051
   H      5.27619   3.90361   1.65084  -0.00605   0.00907  -0.00051
   H      1.41508   0.16689  16.94436  -0.00605   0.00907  -0.00051
   H      2.44603   7.97411   7.64676  -0.00605   0.00907  -0.00051
   H      7.77483   2.22982  10.72817  -0.00605   0.00907  -0.00051
   H      3.80852   5.91118   1.43058  -0.00605   0.00907  -0.00051
   H     -0.05260   6.30032  17.16462  -0.00605   0.00907  -0.00051
   H      3.91371   1.84068   7.86702  -0.00605   0.00907  -0.00051
   H      1.33059   3.22276  10.01585  -0.00605   0.00907  -0.00051
   H      2.53052   4.91824   0.71825  -0.00605   0.00907  -0.00051
   H      6.39163   7.29326  17.87695  -0.00605   0.00907  -0.00051
   H      5.19171   0.84774   8.57935  -0.00605   0.00907  -0.00051
   H      7.61924   1.95358   8.29226  -0.00605   0.00907  -0.00051
   H      3.96410   6.18742  17.58986  -0.00605   0.00907  -0.00051
   H      0.10299   6.02408   1.00534  -0.00605   0.00907  -0.00051
   H      3.75812   2.11692  10.30293  -0.00605   0.00907  -0.00051
   H      6.23248   2.94935   8.78057  -0.00605   0.00907  -0.00051
   H      5.35086   5.19164  18.07817  -0.00605   0.00907  -0.00051
   H      1.48974   7.01985   0.51703  -0.00605   0.00907  -0.00051
   H      2.37137   1.12115   9.81463  -0.00605   0.00907  -0.00051
   H      7.65492   3.69723   8.02487  -0.00605   0.00907  -0.00051
   H      3.92842   4.44376  17.32247  -0.00605   0.00907  -0.00051
   H      0.06730   7.76773   1.27273  -0.00605   0.00907  -0.00051
   H      3.79381   0.37326  10.57032  -0.00605   0.00907  -0.00051
   H      7.85157   3.44967  12.66816  -0.00605   0.00907  -0.00051
   H      3.73177   4.69133   3.37057  -0.00605   0.00907  -0.00051
   H     -0.12934   7.52017  15.22463  -0.00605   0.00907  -0.00051
   H      3.99045   0.62083   5.92703  -0.00605   0.00907  -0.00051
   H      1.25445   4.60889  12.19918  -0.00605   0.00907  -0.00051
   H      2.60666   3.53211   2.90159  -0.00605   0.00907  -0.00051
   H      6.46778   0.53839  15.69361  -0.00605   0.00907  -0.00051
   H      5.11557   7.60261   6.39601  -0.00605   0.00907  -0.00051
   H      7.46670   5.06091  12.82774  -0.00605   0.00907  -0.00051
   H      4.11664   3.08009   3.53014  -0.00605   0.00907  -0.00051
   H      0.25552   0.99041  15.06506  -0.00605   0.00907  -0.00051
   H      3.60559   7.15059   5.76746  -0.00605   0.00907  -0.00051
   Pb     3.76011   3.41883  14.30942  -0.00605   0.00907  -0.00051
   Pb     0.10100   4.72217   5.01183  -0.00605   0.00907  -0.00051
   Pb     3.96211   7.48932  13.58337  -0.00605   0.00907  -0.00051
   Pb     7.62123   0.65167   4.28577  -0.00605   0.00907  -0.00051
   C      0.03715   5.60250  10.08854  -0.00605   0.00907  -0.00051
   C      3.82396   2.53850   0.79094  -0.00605   0.00907  -0.00051
   C      7.68507   1.53200  17.80425  -0.00605   0.00907  -0.00051
   C      3.89827   6.60900   8.50665  -0.00605   0.00907  -0.00051
   C      7.39509   4.33497  10.83000  -0.00605   0.00907  -0.00051
   C      4.18825   3.80603   1.53240  -0.00605   0.00907  -0.00051
   C      0.32714   0.26447  17.06279  -0.00605   0.00907  -0.00051
   C      3.53398   7.87653   7.76520  -0.00605   0.00907  -0.00051
   C      0.23949   3.11250  10.10141  -0.00605   0.00907  -0.00051
   C      3.62162   5.02850   0.80382  -0.00605   0.00907  -0.00051
   C      7.48273   7.18299  17.79138  -0.00605   0.00907  -0.00051
   C      4.10061   0.95800   8.49378  -0.00605   0.00907  -0.00051
   C      7.32898   2.91774   8.72605  -0.00605   0.00907  -0.00051
   C      4.25437   5.22326  18.02364  -0.00605   0.00907  -0.00051
   C      0.39325   6.98824   0.57155  -0.00605   0.00907  -0.00051
   C      3.46786   1.15276   9.86915  -0.00605   0.00907  -0.00051
   I      7.00073   7.41473  11.00062  -0.00605   0.00907  -0.00051
   I      4.58261   0.72627   1.70302  -0.00605   0.00907  -0.00051
   I      0.72150   3.34423  16.89217  -0.00605   0.00907  -0.00051
   I      3.13961   4.79677   7.59457  -0.00605   0.00907  -0.00051
   Br     1.80740   1.48907  13.16898  -0.00605   0.00907  -0.00051
   Br     2.05371   6.65193   3.87138  -0.00605   0.00907  -0.00051
   Br     5.91482   5.55957  14.72381  -0.00605   0.00907  -0.00051
   Br     5.66852   2.58143   5.42621  -0.00605   0.00907  -0.00051
   Br     3.51722   4.97936  11.70516  -0.00605   0.00907  -0.00051
   Br     0.34390   3.16164   2.40756  -0.00605   0.00907  -0.00051
   Br     4.20501   0.90886  16.18763  -0.00605   0.00907  -0.00051
   Br     7.37833   7.23214   6.89003  -0.00605   0.00907  -0.00051
   Br     5.78795   1.84513  12.90934  -0.00605   0.00907  -0.00051
   Br     5.79539   6.29587   3.61174  -0.00605   0.00907  -0.00051
   Br     1.93427   5.91563  14.98345  -0.00605   0.00907  -0.00051
   Br     1.92684   2.22537   5.68586  -0.00605   0.00907  -0.00051
   N      0.23727   4.37640  12.22404  -0.00605   0.00907  -0.00051
   N      3.62385   3.76460   2.92645  -0.00605   0.00907  -0.00051
   N      7.48496   0.30590  15.66875  -0.00605   0.00907  -0.00051
   N      4.09838   7.83510   6.37115  -0.00605   0.00907  -0.00051
PRIMCOORD    2
     84   1
   H      7.34593   5.59032   9.07864   0.00905   0.00607   0.00059
   H      4.23741   2.55067  18.37624   0.00905   0.00607   0.00059
   H      0.37630   1.51983   0.21896   0.00905   0.00607   0.00059
   H      3.48482   6.62117   9.51655   0.00905   0.00607   0.00059
   H      1.12430   5.72688  10.03211   0.00905   0.00607   0.00059
   H      2.73682   2.41411   0.73451   0.00905   0.00607   0.00059
   H      6.59793   1.65638  17.86068   0.00905   0.00607   0.00059
   H      4.98541   6.48461   8.56309   0.00905   0.00607   0.00059
   H      6.30715   4.23738  10.94843   0.00905   0.00607   0.00059
   H      5.27619   3.90361   1.65084   0.00905   0.00607   0.00059
   H      1.41508   0.16689  16.94436   0.00905   0.00607   0.00059
   H      2.44603   7.97411   7.64676   0.00905   0.00607   0.00059
   H      7.77483   2.22982  10.72817   0.00905   0.00607   0.00059
   H      3.80852   5.91118   1.43058   0.00905   0.00607   0.00059
   H     -0.05260   6.30032  17.16462   0.00905   0.00607   0.00059
   H      3.91371   1.84068   7.86702   0.00905   0.00607   0.00059
   H      1.33059   3.22276  10.01585   0.00905   0.00607   0.00059
   H      2.53052   4.91824   0.71825   0.00905   0.00607   0.00059
   H      6.39163   7.29326  17.87695   0.00905   0.00607   0.00059
   H      5.19171   0.84774   8.57935   0.00905   0.00607   0.00059
   H      7.61924   1.95358   8.29226   0.00905   0.00607   0.00059
   H      3.96410   6.18742  17.58986   0.00905   0.00607   0.00059
   H      0.10299   6.02408   1.00534   0.00905   0.00607   0.00059
   H      3.75812   2.11692  10.30293   0.00905   0.00607   0.00059
   H      6.23248   2.94935   8.78057   0.00905   0.00607   0.00059
   H      5.35086   5.19164  18.07817   0.00905   0.00607   0.00059
   H      1.48974   7.01985   0.51703   0.00905   0.00607   0.00059
   H      2.37137   1.12115   9.81463   0.00905   0.00607   0.00059
   H      7.65492   3.69723   8.02487   0.00905   0.00607   0.00059
   H      3.92842   4.44376  17.32247   0.00905   0.00607   0.00059
   H      0.06730   7.76773   1.27273   0.00905   0.00607   0.00059
   H      3.79381   0.37326  10.57032   0.00905   0.00607   0.00059
   H      7.85157   3.44967  12.66816   0.00905   0.00607   0.00059
   H      3.73177   4.69133   3.37057   0.00905   0.00607   0.00059
   H     -0.12934   7.52017  15.22463   0.00905   0.00607   0.00059
   H      3.99045   0.62083   5.92703   0.00905   0.00607   0.00059
   H      1.25445   4.60889  12.19918   0.00905   0.00607   0.00059
   H      2.60666   3.53211   2.90159   0.00905   0.00607   0.00059
   H      6.46778   0.53839  15.69361   0.00905   0.00607   0.00059
   H      5.11557   7.60261   6.39601   0.00905   0.00607   0.00059
   H      7.46670   5.06091  12.82774   0.00905   0.00607   0.00059
   H      4.11664   3.08009   3.53014   0.00905   0.00607   0.00059
   H      0.25552   0.99041  15.06506   0.00905   0.00607   0.00059
   H      3.60559   7.15059   5.76746   0.00905   0.00607   0.00059
   Pb     3.76011   3.41883  14.30942   0.00905   0.00607   0.00059
   Pb     0.10100   4.72217   5.01183   0.00905   0.00607   0.00059
   Pb     3.96211   7.48932  13.58337   0.00905   0.00607   0.00059
   Pb     7.62123   0.65167   4.28577   0.00905   0.00607   0.00059
   C      0.03715   5.60250  10.08854   0.00905   0.00607   0.00059
   C      3.82396   2.53850   0.79094   0.00905   0.00607   0.00059
   C      7.68507   1.53200  17.80425   0.00905   0.00607   0.00059
   C      3.89827   6.60900   8.50665   0.00905   0.00607   0.00059
   C      7.39509   4.33497  10.83000   0.00905   0.00607   0.00059
   C      4.18825   3.80603   1.53240   0.00905   0.00607   0.00059
   C      0.32714   0.26447  17.06279   0.00905   0.00607   0.00059
   C      3.53398   7.87653   7.76520   0.00905   0.00607   0.00059
   C      0.23949   3.11250  10.10141   0.00905   0.00607   0.00059
   C      3.62162   5.02850   0.80382   0.00905   0.00607   0.00059
   C      7.48273   7.18299  17.79138   0.00905   0.00607   0.00059
   C      4.10061   0.95800   8.49378   0.00905   0.00607   0.00059
   C      7.32898   2.91774   8.72605   0.00905   0.00607   0.00059
   C      4.25437   5.22326  18.02364   0.00905   0.00607   0.00059
   C      0.39325   6.98824   0.57155   0.00905   0.00607   0.00059
   C      3.46786   1.15276   9.86915   0.00905   0.00607   0.00059
   I      7.00073   7.41473  11.00062   0.00905   0.00607   0.00059
   I      4.58261   0.72627   1.70302   0.00905   0.00607   0.00059
   I      0.72150   3.34423  16.89217   0.00905   0.00607   0.00059
   I      3.13961   4.79677   7.59457   0.00905   0.00607   0.00059
   Br     1.80740   1.48907  13.16898   0.00905   0.00607   0.00059
   Br     2.05371   6.65193   3.87138   0.00905   0.00607   0.00059
   Br     5.91482   5.55957  14.72381   0.00905   0.00607   0.00059
   Br     5.66852   2.58143   5.42621   0.00905   0.00607   0.00059
   Br     3.51722   4.97936  11.70516   0.00905   0.00607   0.00059
   Br     0.34390   3.16164   2.40756   0.00905   0.00607   0.00059
   Br     4.20501   0.90886  16.18763   0.00905   0.00607   0.00059
   Br     7.37833   7.23214   6.89003   0.00905   0.00607   0.00059
   Br     5.78795   1.84513  12.90934   0.00905   0.00607   0.00059
   Br     5.79539   6.29587   3.61174   0.00905   0.00607   0.00059
   Br     1.93427   5.91563  14.98345   0.00905   0.00607   0.00059
   Br     1.92684   2.22537   5.68586   0.00905   0.00607   0.00059
   N      0.23727   4.37640  12.22404   0.00905   0.00607   0.00059
   N      3.62385   3.76460   2.92645   0.00905   0.00607   0.00059
   N      7.48496   0.30590  15.66875   0.00905   0.00607   0.00059
   N      4.09838   7.83510   6.37115   0.00905   0.00607   0.00059
PRIMCOORD    3
     84   1
   H      7.34593   5.59032   9.07864   0.00077  -0.00010  -0.01088
   H      4.23741   2.55067  18.37624   0.00077  -0.00010  -0.01088
   H      0.37630   1.51983   0.21896   0.00077  -0.00010  -0.01088
   H      3.48482   6.62117   9.51655   0.00077  -0.00010  -0.01088
   H      1.12430   5.72688  10.03211   0.00077  -0.00010  -0.01088
   H      2.73682   2.41411   0.73451   0.00077  -0.00010  -0.01088
   H      6.59793   1.65638  17.86068   0.00077  -0.00010  -0.01088
   H      4.98541   6.48461   8.56309   0.00077  -0.00010  -0.01088
   H      6.30715   4.23738  10.94843   0.00077  -0.00010  -0.01088
   H      5.27619   3.90361   1.65084   0.00077  -0.00010  -0.01088
   H      1.41508   0.16689  16.94436   0.00077  -0.00010  -0.01088
   H      2.44603   7.97411   7.64676   0.00077  -0.00010  -0.01088
   H      7.77483   2.22982  10.72817   0.00077  -0.00010  -0.01088
   H      3.80852   5.91118   1.43058   0.00077  -0.00010  -0.01088
   H     -0.05260   6.30032  17.16462   0.00077  -0.00010  -0.01088
   H      3.91371   1.84068   7.86702   0.00077  -0.00010  -0.01088
   H      1.33059   3.22276  10.01585   0.00077  -0.00010  -0.01088
   H      2.53052   4.91824   0.71825   0.00077  -0.00010  -0.01088
   H      6.39163   7.29326  17.87695   0.00077  -0.00010  -0.01088
   H      5.19171   0.84774   8.57935   0.00077  -0.00010  -0.01088
   H      7.61924   1.95358   8.29226   0.00077  -0.00010  -0.01088
   H      3.96410   6.18742  17.58986   0.00077  -0.00010  -0.01088
   H      0.10299   6.02408   1.00534   0.00077  -0.00010  -0.01088
   H      3.75812   2.11692  10.30293   0.00077  -0.00010  -0.01088
   H      6.23248   2.94935   8.78057   0.00077  -0.00010  -0.01088
   H      5.35086   5.19164  18.07817   0.00077  -0.00010  -0.01088
   H      1.48974   7.01985   0.51703   0.00077  -0.00010  -0.01088
   H      2.37137   1.12115   9.81463   0.00077  -0.00010  -0.01088
   H      7.65492   3.69723   8.02487   0.00077  -0.00010  -0.01088
   H      3.92842   4.44376  17.32247   0.00077  -0.00010  -0.01088
   H      0.06730   7.76773   1.27273   0.00077  -0.00010  -0.01088
   H      3.79381   0.37326  10.57032   0.00077  -0.00010  -0.01088
   H      7.85157   3.44967  12.66816   0.00077  -0.00010  -0.01088
   H      3.73177   4.69133   3.37057   0.00077  -0.00010  -0.01088
   H     -0.12934   7.52017  15.22463   0.00077  -0.00010  -0.01088
   H      3.99045   0.62083   5.92703   0.00077  -0.00010  -0.01088
   H      1.25445   4.60889  12.19918   0.00077  -0.00010  -0.01088
   H      2.60666   3.53211   2.90159   0.00077  -0.00010  -0.01088
   H      6.46778   0.53839  15.69361   0.00077  -0.00010  -0.01088
   H      5.11557   7.60261   6.39601   0.00077  -0.00010  -0.01088
   H      7.46670   5.06091  12.82774   0.00077  -0.00010  -0.01088
   H      4.11664   3.08009   3.53014   0.00077  -0.00010  -0.01088
   H      0.25552   0.99041  15.06506   0.00077  -0.00010  -0.01088
   H      3.60559   7.15059   5.76746   0.00077  -0.00010  -0.01088
   Pb     3.76011   3.41883  14.30942   0.00077  -0.00010  -0.01088
   Pb     0.10100   4.72217   5.01183   0.00077  -0.00010  -0.01088
   Pb     3.96211   7.48932  13.58337   0.00077  -0.00010  -0.01088
   Pb     7.62123   0.65167   4.28577   0.00077  -0.00010  -0.01088
   C      0.03715   5.60250  10.08854   0.00077  -0.00010  -0.01088
   C      3.82396   2.53850   0.79094   0.00077  -0.00010  -0.01088
   C      7.68507   1.53200  17.80425   0.00077  -0.00010  -0.01088
   C      3.89827   6.60900   8.50665   0.00077  -0.00010  -0.01088
   C      7.39509   4.33497  10.83000   0.00077  -0.00010  -0.01088
   C      4.18825   3.80603   1.53240   0.00077  -0.00010  -0.01088
   C      0.32714   0.26447  17.06279   0.00077  -0.00010  -0.01088
   C      3.53398   7.87653   7.76520   0.00077  -0.00010  -0.01088
   C      0.23949   3.11250  10.10141   0.00077  -0.00010  -0.01088
   C      3.62162   5.02850   0.80382   0.00077  -0.00010  -0.01088
   C      7.48273   7.18299  17.79138   0.00077  -0.00010  -0.01088
   C      4.10061   0.95800   8.49378   0.00077  -0.00010  -0.01088
   C      7.32898   2.91774   8.72605   0.00077  -0.00010  -0.01088
   C      4.25437   5.22326  18.02364   0.00077  -0.00010  -0.01088
   C      0.39325   6.98824   0.57155   0.00077  -0.00010  -0.01088
   C      3.46786   1.15276   9.86915   0.00077  -0.00010  -0.01088
   I      7.00073   7.41473  11.00062   0.00077  -0.00010  -0.01088
   I      4.58261   0.72627   1.70302   0.00077  -0.00010  -0.01088
   I      0.72150   3.34423  16.89217   0.00077  -0.00010  -0.01088
   I      3.13961   4.79677   7.59457   0.00077  -0.00010  -0.01088
   Br     1.80740   1.48907  13.16898   0.00077  -0.00010  -0.01088
   Br     2.05371   6.65193   3.87138   0.00077  -0.00010  -0.01088
   Br     5.91482   5.55957  14.72381   0.00077  -0.00010  -0.01088
   Br     5.66852   2.58143   5.42621   0.00077  -0.00010  -0.01088
   Br     3.51722   4.97936  11.70516   0.00077  -0.00010  -0.01088
   Br     0.34390   3.16164   2.40756   0.00077  -0.00010  -0.01088
   Br     4.20501   0.90886  16.18763   0.00077  -0.00010  -0.01088
   Br     7.37833   7.23214   6.89003   0.00077  -0.00010  -0.01088
   Br     5.78795   1.84513  12.90934   0.00077  -0.00010  -0.01088
   Br     5.79539   6.29587   3.61174   0.00077  -0.00010  -0.01088
   Br     1.93427   5.91563  14.98345   0.00077  -0.00010  -0.01088
   Br     1.92684   2.22537   5.68586   0.00077  -0.00010  -0.01088
   N      0.23727   4.37640  12.22404   0.00077  -0.00010  -0.01088
   N      3.62385   3.76460   2.92645   0.00077  -0.00010  -0.01088
   N      7.48496   0.30590  15.66875   0.00077  -0.00010  -0.01088
   N      4.09838   7.83510   6.37115   0.00077  -0.00010  -0.01088
PRIMCOORD    4
     84   1
   H      7.34593   5.59032   9.07864   0.01509   0.00113  -0.00038
   H      4.23741   2.55067  18.37624  -0.01509  -0.00113  -0.00038
   H      0.37630   1.51983   0.21896   0.01509  -0.00113  -0.00038
   H      3.48482   6.62117   9.51655  -0.01509   0.00113  -0.00038
   H      1.12430   5.72688  10.03211   0.01231   0.00045   0.00414
   H      2.73682   2.41411   0.73451  -0.01231  -0.00045   0.00414
   H      6.59793   1.65638  17.86068   0.01231  -0.00045   0.00414
   H      4.98541   6.48461   8.56309  -0.01231   0.00045   0.00414
   H      6.30715   4.23738  10.94843   0.00928   0.00498   0.00251
   H      5.27619   3.90361   1.65084  -0.00928  -0.00498   0.00251
   H      1.41508   0.16689  16.94436   0.00928  -0.00498   0.00251
   H      2.44603   7.97411   7.64676  -0.00928   0.00498   0.00251
   H      7.77483   2.22982  10.72817   0.00779   0.00169   0.00207
   H      3.80852   5.91118   1.43058  -0.00779  -0.00169   0.00207
   H     -0.05260   6.30032  17.16462   0.00779  -0.00169   0.00207
   H      3.91371   1.84068   7.86702  -0.00779   0.00169   0.00207
   H      1.33059   3.22276  10.01585   0.00400  -0.00018  -0.00744
   H      2.53052   4.91824   0.71825  -0.00400   0.00018  -0.00744
   H      6.39163   7.29326  17.87695   0.00400   0.00018  -0.00744
   H      5.19171   0.84774   8.57935  -0.00400  -0.00018  -0.00744
   H      7.61924   1.95358   8.29226  -0.00655  -0.00099   0.00278
   H      3.96410   6.18742  17.58986   0.00655   0.00099   0.00278
   H      0.10299   6.02408   1.00534  -0.00655   0.00099   0.00278
   H      3.75812   2.11692  10.30293   0.00655  -0.00099   0.00278
   H      6.23248   2.94935   8.78057  -0.00435  -0.00226   0.01190
   H      5.35086   5.19164  18.07817   0.00435   0.00226   0.01190
   H      1.48974   7.01985   0.51703  -0.00435   0.00226   0.01190
   H      2.37137   1.12115   9.81463   0.00435  -0.00226   0.01190
   H      7.65492   3.69723   8.02487  -0.01067  -0.00125   0.00111
   H      3.92842   4.44376  17.32247   0.01067   0.00125   0.00111
   H      0.06730   7.76773   1.27273  -0.01067   0.00125   0.00111
   H      3.79381   0.37326  10.57032   0.01067  -0.00125   0.00111
   H      7.85157   3.44967  12.66816   0.00907   0.00128   0.00071
   H      3.73177   4.69133   3.37057  -0.00907  -0.00128   0.00071
   H     -0.12934   7.52017  15.22463   0.00907  -0.00128   0.00071
   H      3.99045   0.62083   5.92703  -0.00907   0.00128   0.00071
   H      1.25445   4.60889  12.19918   0.01198  -0.00190  -0.00077
   H      2.60666   3.53211   2.90159  -0.01198   0.00190  -0.00077
   H      6.46778   0.53839  15.69361   0.01198   0.00190  -0.00077
   H      5.11557   7.60261   6.39601  -0.01198  -0.00190  -0.00077
   H      7.46670   5.06091  12.82774   0.01390   0.00234   0.00053
   H      4.11664   3.08009   3.53014  -0.01390  -0.00234   0.00053
   H      0.25552   0.99041  15.06506   0.01390  -0.00234   0.00053
   H      3.60559   7.15059   5.76746  -0.01390   0.00234   0.00053
   Pb     3.76011   3.41883  14.30942   0.01181  -0.00016   0.00027
   Pb     0.10100   4.72217   5.01183  -0.01181   0.00016   0.00027
   Pb     3.96211   7.48932  13.58337   0.01181   0.00016   0.00027
   Pb     7.62123   0.65167   4.28577  -0.01181  -0.00016   0.00027
   C      0.03715   5.60250  10.08854   0.01207   0.00127   0.00085
   C      3.82396   2.53850   0.79094  -0.01207  -0.00127   0.00085
   C      7.68507   1.53200  17.80425   0.01207  -0.00127   0.00085
   C      3.89827   6.60900   8.50665  -0.01207   0.00127   0.00085
   C      7.39509   4.33497  10.83000   0.00937   0.00212   0.00095
   C      4.18825   3.80603   1.53240  -0.00937  -0.00212   0.00095
   C      0.32714   0.26447  17.06279   0.00937  -0.00212   0.00095
   C      3.53398   7.87653   7.76520  -0.00937   0.00212   0.00095
   C      0.23949   3.11250  10.10141   0.00447   0.00068  -0.00034
   C      3.62162   5.02850   0.80382  -0.00447  -0.00068  -0.00034
   C      7.48273   7.18299  17.79138   0.00447  -0.00068  -0.00034
   C      4.10061   0.95800   8.49378  -0.00447   0.00068  -0.00034
   C      7.32898   2.91774   8.72605  -0.00471  -0.00103   0.00410
   C      4.25437   5.22326  18.02364   0.00471   0.00103   0.00410
   C      0.39325   6.98824   0.57155  -0.00471   0.00103   0.00410
   C      3.46786   1.15276   9.86915   0.00471  -0.00103   0.00410
   I      7.00073   7.41473  11.00062   0.01048   0.00205  -0.00230
   I      4.58261   0.72627   1.70302  -0.01048  -0.00205  -0.00230
   I      0.72150   3.34423  16.89217   0.01048  -0.00205  -0.00230
   I      3.13961   4.79677   7.59457  -0.01048   0.00205  -0.00230
   Br     1.80740   1.48907  13.16898   0.01096  -0.00018   0.00125
   Br     2.05371   6.65193   3.87138  -0.01096   0.00018   0.00125
   Br     5.91482   5.55957  14.72381   0.01096   0.00018   0.00125
   Br     5.66852   2.58143   5.42621  -0.01096  -0.00018   0.00125
   Br     3.51722   4.97936  11.70516   0.01169  -0.00033   0.00014
   Br     0.34390   3.16164   2.40756  -0.01169   0.00033   0.00014
   Br     4.20501   0.90886  16.18763   0.01169   0.00033   0.00014
   Br     7.37833   7.23214   6.89003  -0.01169  -0.00033   0.00014
   Br     5.78795   1.84513  12.90934   0.01147   0.00011   0.00047
   Br     5.79539   6.29587   3.61174  -0.01147  -0.00011   0.00047
   Br     1.93427   5.91563  14.98345   0.01147  -0.00011   0.00047
   Br     1.92684   2.22537   5.68586  -0.01147   0.00011   0.00047
   N      0.23727   4.37640  12.22404   0.01134   0.00081   0.00027
   N      3.62385   3.76460   2.92645  -0.01134  -0.00081   0.00027
   N      7.48496   0.30590  15.66875   0.01134  -0.00081   0.00027
   N      4.09838   7.83510   6.37115  -0.01134   0.00081   0.00027
PRIMCOORD    5
     84   1
   H      7.34593   5.59032   9.07864  -0.00079  -0.00806  -0.00133
   H      4.23741   2.55067  18.37624   0.00079   0.00806  -0.00133
   H      0.37630   1.51983   0.21896   0.00079  -0.00806   0.00133
   H      3.48482   6.62117   9.51655  -0.00079   0.00806   0.00133
   H      1.12430   5.72688  10.03211  -0.00025  -0.00873  -0.00202
   H      2.73682   2.41411   0.73451   0.00025   0.00873  -0.00202
   H      6.59793   1.65638  17.86068   0.00025  -0.00873   0.00202
   H      4.98541   6.48461   8.56309  -0.00025   0.00873   0.00202
   H      6.30715   4.23738  10.94843   0.00031  -0.01005  -0.00262
   H      5.27619   3.90361   1.65084  -0.00031   0.01005  -0.00262
   H      1.41508   0.16689  16.94436  -0.00031  -0.01005   0.00262
   H      2.44603   7.97411   7.64676   0.00031   0.01005   0.00262
   H      7.77483   2.22982  10.72817  -0.00238  -0.00988  -0.00486
   H      3.80852   5.91118   1.43058   0.00238   0.00988  -0.00486
   H     -0.05260   6.30032  17.16462   0.00238  -0.00988   0.00486
   H      3.91371   1.84068   7.86702  -0.00238   0.00988   0.00486
   H      1.33059   3.22276  10.01585   0.00140  -0.01025   0.00124
   H      2.53052   4.91824   0.71825  -0.00140   0.01025   0.00124
   H      6.39163   7.29326  17.87695  -0.00140  -0.01025  -0.00124
   H      5.19171   0.84774   8.57935   0.00140   0.01025  -0.00124
   H      7.61924   1.95358   8.29226   0.00199  -0.00665  -0.00444
   H      3.96410   6.18742  17.58986  -0.00199   0.00665  -0.00444
   H      0.10299   6.02408   1.00534  -0.00199  -0.00665   0.00444
   H      3.75812   2.11692  10.30293   0.00199   0.00665   0.00444
   H      6.23248   2.94935   8.78057   0.00536   0.00040  -0.00963
   H      5.35086   5.19164  18.07817  -0.00536  -0.00040  -0.00963
   H      1.48974   7.01985   0.51703  -0.00536   0.00040   0.00963
   H      2.37137   1.12115   9.81463   0.00536  -0.00040   0.00963
   H      7.65492   3.69723   8.02487   0.01233  -0.00692  -0.00381
   H      3.92842   4.44376  17.32247  -0.01233   0.00692  -0.00381
   H      0.06730   7.76773   1.27273  -0.01233  -0.00692   0.00381
   H      3.79381   0.37326  10.57032   0.01233   0.00692   0.00381
   H      7.85157   3.44967  12.66816  -0.00119  -0.01052  -0.00246
   H      3.73177   4.69133   3.37057   0.00119   0.01052  -0.00246
   H     -0.12934   7.52017  15.22463   0.00119  -0.01052   0.00246
   H      3.99045   0.62083   5.92703  -0.00119   0.01052   0.00246
   H      1.25445   4.60889  12.19918   0.00031  -0.01154  -0.00213
   H      2.60666   3.53211   2.90159  -0.00031   0.01154  -0.00213
   H      6.46778   0.53839  15.69361  -0.00031  -0.01154   0.00213
   H      5.11557   7.60261   6.39601   0.00031   0.01154   0.00213
   H      7.46670   5.06091  12.82774   0.00094  -0.01010  -0.00221
   H      4.11664   3.08009   3.53014  -0.00094   0.01010  -0.00221
   H      0.25552   0.99041  15.06506  -0.00094  -0.01010   0.00221
   H      3.60559   7.15059   5.76746   0.00094   0.01010   0.00221
   Pb     3.76011   3.41883  14.30942  -0.00145  -0.01310  -0.00354
   Pb     0.10100   4.72217   5.01183   0.00145   0.01310  -0.00354
   Pb     3.96211   7.48932  13.58337   0.00145  -0.01310   0.00354
   Pb     7.62123   0.65167   4.28577  -0.00145   0.01310   0.00354
   C      0.03715   5.60250  10.08854  -0.00021  -0.00893  -0.00151
   C      3.82396   2.53850   0.79094   0.00021   0.00893  -0.00151
   C      7.68507   1.53200  17.80425   0.00021  -0.00893   0.00151
   C      3.89827   6.60900   8.50665  -0.00021   0.00893   0.00151
   C      7.39509   4.33497  10.83000   0.00031  -0.00964  -0.00236
   C      4.18825   3.80603   1.53240  -0.00031   0.00964  -0.00236
   C      0.32714   0.26447  17.06279  -0.00031  -0.00964   0.00236
   C      3.53398   7.87653   7.76520   0.00031   0.00964   0.00236
   C      0.23949   3.11250  10.10141   0.00097  -0.00900  -0.00269
   C      3.62162   5.02850   0.80382  -0.00097   0.00900  -0.00269
   C      7.48273   7.18299  17.79138  -0.00097  -0.00900   0.00269
   C      4.10061   0.95800   8.49378   0.00097   0.00900   0.00269
   C      7.32898   2.91774   8.72605   0.00540  -0.00527  -0.00525
   C      4.25437   5.22326  18.02364  -0.00540   0.00527  -0.00525
   C      0.39325   6.98824   0.57155  -0.00540  -0.00527   0.00525
   C      3.46786   1.15276   9.86915   0.00540   0.00527   0.00525
   I      7.00073   7.41473  11.00062  -0.00013  -0.01028   0.00110
   I      4.58261   0.72627   1.70302   0.00013   0.01028   0.00110
   I      0.72150   3.34423  16.89217   0.00013  -0.01028  -0.00110
   I      3.13961   4.79677   7.59457  -0.00013   0.01028  -0.00110
   Br     1.80740   1.48907  13.16898   0.00061  -0.01388  -0.00189
   Br     2.05371   6.65193   3.87138  -0.00061   0.01388  -0.00189
   Br     5.91482   5.55957  14.72381  -0.00061  -0.01388   0.00189
   Br     5.66852   2.58143   5.42621   0.00061   0.01388   0.00189
   Br     3.51722   4.97936  11.70516   0.00085  -0.01054  -0.00203
   Br     0.34390   3.16164   2.40756  -0.00085   0.01054  -0.00203
   Br     4.20501   0.90886  16.18763  -0.00085  -0.01054   0.00203
   Br     7.37833   7.23214   6.89003   0.00085   0.01054   0.00203
   Br     5.78795   1.84513  12.90934   0.00267  -0.01226   0.00273
   Br     5.79539   6.29587   3.61174  -0.00267   0.01226   0.00273
   Br     1.93427   5.91563  14.98345  -0.00267  -0.01226  -0.00273
   Br     1.92684   2.22537   5.68586   0.00267   0.01226  -0.00273
   N      0.23727   4.37640  12.22404   0.00009  -0.01056  -0.00226
   N      3.62385   3.76460   2.92645  -0.00009   0.01056  -0.00226
   N      7.48496   0.30590  15.66875  -0.00009  -0.01056   0.00226
   N      4.09838   7.83510   6.37115   0.00009   0.01056   0.00226
PRIMCOORD    6
     84   1
   H      7.34593   5.59032   9.07864  -0.00017   0.00810   0.00480
   H      4.23741   2.55067  18.37624  -0.00017   0.00810  -0.00480
   H      0.37630   1.51983   0.21896   0.00017   0.00810  -0.00480
   H      3.48482   6.62117   9.51655   0.00017   0.00810   0.00480
   H      1.12430   5.72688  10.03211  -0.00012   0.00476   0.00517
   H      2.73682   2.41411   0.73451  -0.00012   0.00476  -0.00517
   H      6.59793   1.65638  17.86068   0.00012   0.00476  -0.00517
   H      4.98541   6.48461   8.56309   0.00012   0.00476   0.00517
   H      6.30715   4.23738  10.94843  -0.00217   0.00841   0.00536
   H      5.27619   3.90361   1.65084  -0.00217   0.00841  -0.00536
   H      1.41508   0.16689  16.94436   0.00217   0.00841  -0.00536
   H      2.44603   7.97411   7.64676   0.00217   0.00841   0.00536
   H      7.77483   2.22982  10.72817  -0.00789   0.00487  -0.00147
   H      3.80852   5.91118   1.43058  -0.00789   0.00487   0.00147
   H     -0.05260   6.30032  17.16462   0.00789   0.00487   0.00147
   H      3.91371   1.84068   7.86702   0.00789   0.00487  -0.00147