
     Program PWSCF v.7.3.1 starts on 18May2025 at 23:48: 0 

     This program is part of the open-source Quantum ESPRESSO suite
     for quantum simulation of materials; please cite
         "P. Giannozzi et al., J. Phys.:Condens. Matter 21 395502 (2009);
         "P. Giannozzi et al., J. Phys.:Condens. Matter 29 465901 (2017);
         "P. Giannozzi et al., J. Chem. Phys. 152 154105 (2020);
          URL http://www.quantum-espresso.org", 
     in publications or presentations arising from this work. More details at
     http://www.quantum-espresso.org/quote

     Parallel version (MPI & OpenMP), running on     192 processor cores
     Number of MPI processes:               192
     Threads/MPI process:                     1

     MPI processes distributed on     1 nodes
     729496 MiB available memory on the printing compute node when the environment starts

     Reading input from scf.inp
Warning: card &CELL ignored
Warning: card / ignored

     Current dimensions of program PWSCF are:
     Max number of different atomic species (ntypx) = 10
     Max number of k-points (npk) =  40000
     Max angular momentum in pseudopotentials (lmaxx) =  4
     Message from routine setup:
     using ibrav=0 with symmetry is DISCOURAGED, use correct ibrav instead

     K-points division:     npool     =       6
     R & G space division:  proc/nbgrp/npool/nimage =      32
     Subspace diagonalization in iterative solution of the eigenvalue problem:
     a serial algorithm will be used


     Parallelization info
     --------------------
     sticks:   dense  smooth     PW     G-vecs:    dense   smooth      PW
     Min         223     223     59                33305    33305    4557
     Max         224     224     60                33312    33312    4563
     Sum        7145    7145   1893              1065875  1065875  145915

     Using Slab Decomposition



     bravais-lattice index     =            0
     lattice parameter (alat)  =      14.5929  a.u.
     unit-cell volume          =    7888.9202 (a.u.)^3
     number of atoms/cell      =           84
     number of atomic types    =            6
     number of electrons       =       296.00
     number of Kohn-Sham states=          148
     kinetic-energy cutoff     =     100.0000  Ry
     charge density cutoff     =     400.0000  Ry
     scf convergence threshold =      1.0E-12
     mixing beta               =       0.4000
     number of iterations used =            8  plain     mixing
     Exchange-correlation= PBE
                           (   1   4   3   4   0   0   0)

     celldm(1)=  14.592896  celldm(2)=   0.000000  celldm(3)=   0.000000
     celldm(4)=   0.000000  celldm(5)=   0.000000  celldm(6)=   0.000000

     crystal axes: (cart. coord. in units of alat)
               a(1) = (   1.000000   0.000000   0.000000 )  
               a(2) = (   0.000000   1.054229   0.000000 )  
               a(3) = (   0.000000   0.000000   2.408009 )  

     reciprocal axes: (cart. coord. in units 2 pi/alat)
               b(1) = (  1.000000  0.000000  0.000000 )  
               b(2) = (  0.000000  0.948560  0.000000 )  
               b(3) = (  0.000000  0.000000  0.415281 )  


     PseudoPot. # 1 for Br read from file:
     /lus/home/CT9/c1507682/kshirsagar/pseudos/dojo_pbe/nc-sr-05_pbe_standard_upf/Br.upf
     MD5 check sum: 68275ccec8d7d9019ef58dac33cdd12b
     Pseudo is Norm-conserving + core correction, Zval =  7.0
     Generated using ONCVPSP code by D. R. Hamann
     Using radial grid of 1098 points,  6 beta functions with: 
                l(1) =   0
                l(2) =   0
                l(3) =   1
                l(4) =   1
                l(5) =   2
                l(6) =   2

     PseudoPot. # 2 for C  read from file:
     /lus/home/CT9/c1507682/kshirsagar/pseudos/dojo_pbe/nc-sr-05_pbe_standard_upf/C.upf
     MD5 check sum: 34a24e64c0a39f27c6c36b90a16ac686
     Pseudo is Norm-conserving + core correction, Zval =  4.0
     Generated using ONCVPSP code by D. R. Hamann
     Using radial grid of 1248 points,  4 beta functions with: 
                l(1) =   0
                l(2) =   0
                l(3) =   1
                l(4) =   1

     PseudoPot. # 3 for H  read from file:
     /lus/home/CT9/c1507682/kshirsagar/pseudos/dojo_pbe/nc-sr-05_pbe_standard_upf/H.upf
     MD5 check sum: e96aa7e3e4a958db16958554ea960e2a
     Pseudo is Norm-conserving, Zval =  1.0
     Generated using ONCVPSP code by D. R. Hamann
     Using radial grid of 1166 points,  3 beta functions with: 
                l(1) =   0
                l(2) =   0
                l(3) =   1

     PseudoPot. # 4 for I  read from file:
     /lus/home/CT9/c1507682/kshirsagar/pseudos/dojo_pbe/nc-sr-05_pbe_standard_upf/I.upf
     MD5 check sum: 9cb9d574a1900baf8aa34970b08b8049
     Pseudo is Norm-conserving + core correction, Zval =  7.0
     Generated using ONCVPSP code by D. R. Hamann
     Using radial grid of 1188 points,  8 beta functions with: 
                l(1) =   0
                l(2) =   0
                l(3) =   1
                l(4) =   1
                l(5) =   2
                l(6) =   2
                l(7) =   3
                l(8) =   3

     PseudoPot. # 5 for N  read from file:
     /lus/home/CT9/c1507682/kshirsagar/pseudos/dojo_pbe/nc-sr-05_pbe_standard_upf/N.upf
     MD5 check sum: d34365f73bb0e2ee98afc20ec3e87676
     Pseudo is Norm-conserving + core correction, Zval =  5.0
     Generated using ONCVPSP code by D. R. Hamann
     Using radial grid of 1058 points,  4 beta functions with: 
                l(1) =   0
                l(2) =   0
                l(3) =   1
                l(4) =   1

     PseudoPot. # 6 for Pb read from file:
     /lus/home/CT9/c1507682/kshirsagar/pseudos/dojo_pbe/nc-sr-05_pbe_standard_upf/Pb.upf
     MD5 check sum: 40989d854e0b57882d9b50c0a8024c6e
     Pseudo is Norm-conserving + core correction, Zval = 14.0
     Generated using ONCVPSP code by D. R. Hamann
     Using radial grid of 1692 points,  8 beta functions with: 
                l(1) =   0
                l(2) =   0
                l(3) =   0
                l(4) =   1
                l(5) =   1
                l(6) =   2
                l(7) =   2
                l(8) =   3

     atomic species   valence    mass     pseudopotential
     Br                7.00    79.90400     Br( 1.00)
     C                 4.00    12.01070     C ( 1.00)
     H                 1.00     1.00794     H ( 1.00)
     I                 7.00   126.90447     I ( 1.00)
     N                 5.00    14.00670     N ( 1.00)
     Pb               14.00   207.20000     Pb( 1.00)

      4 Sym. Ops. (no inversion) found ( 3 have fractional translation)


                                    s                        frac. trans.

      isym =  1     identity                                     

 cryst.   s( 1) = (     1          0          0      )
                  (     0          1          0      )
                  (     0          0          1      )

 cart.    s( 1) = (  1.0000000  0.0000000  0.0000000 )
                  (  0.0000000  1.0000000  0.0000000 )
                  (  0.0000000  0.0000000  1.0000000 )


      isym =  2     180 deg rotation - cart. axis [0,0,1]        

 cryst.   s( 2) = (    -1          0          0      )    f =(  0.5000000 )
                  (     0         -1          0      )       (  0.0000000 )
                  (     0          0          1      )       ( -0.5000000 )

 cart.    s( 2) = ( -1.0000000  0.0000000  0.0000000 )    f =(  0.5000000 )
                  (  0.0000000 -1.0000000  0.0000000 )       (  0.0000000 )
                  (  0.0000000  0.0000000  1.0000000 )       ( -1.2040046 )


      isym =  3     180 deg rotation - cart. axis [0,1,0]        

 cryst.   s( 3) = (    -1          0          0      )    f =(  0.0000000 )
                  (     0          1          0      )       ( -0.5000000 )
                  (     0          0         -1      )       ( -0.5000000 )

 cart.    s( 3) = ( -1.0000000  0.0000000  0.0000000 )    f =(  0.0000000 )
                  (  0.0000000  1.0000000  0.0000000 )       ( -0.5271145 )
                  (  0.0000000  0.0000000 -1.0000000 )       ( -1.2040046 )


      isym =  4     180 deg rotation - cart. axis [1,0,0]        

 cryst.   s( 4) = (     1          0          0      )    f =(  0.5000000 )
                  (     0         -1          0      )       (  0.5000000 )
                  (     0          0         -1      )       (  0.0000000 )

 cart.    s( 4) = (  1.0000000  0.0000000  0.0000000 )    f =(  0.5000000 )
                  (  0.0000000 -1.0000000  0.0000000 )       (  0.5271145 )
                  (  0.0000000  0.0000000 -1.0000000 )       (  0.0000000 )


   Cartesian axes

     site n.     atom                  positions (alat units)
         1        H      tau(   1) = (   0.9512709   0.7239264   1.1756505  )
         2        H      tau(   2) = (   0.5487291   0.3303026   2.3796551  )
         3        H      tau(   3) = (   0.0487291   0.1968119   0.0283541  )
         4        H      tau(   4) = (   0.4512709   0.8574172   1.2323587  )
         5        H      tau(   5) = (   0.1455921   0.7416102   1.2991213  )
         6        H      tau(   6) = (   0.3544079   0.3126188   0.0951167  )
         7        H      tau(   7) = (   0.8544079   0.2144957   2.3128925  )
         8        H      tau(   8) = (   0.6455921   0.8397334   1.1088879  )
         9        H      tau(   9) = (   0.8167522   0.5487256   1.4177818  )
        10        H      tau(  10) = (   0.6832478   0.5055034   0.2137772  )
        11        H      tau(  11) = (   0.1832478   0.0216111   2.1942320  )
        12        H      tau(  12) = (   0.3167522   1.0326180   0.9902274  )
        13        H      tau(  13) = (   1.0068114   0.2887535   1.3892589  )
        14        H      tau(  14) = (   0.4931886   0.7654756   0.1852543  )
        15        H      tau(  15) = (  -0.0068114   0.8158680   2.2227549  )
        16        H      tau(  16) = (   0.5068114   0.2383610   1.0187503  )
        17        H      tau(  17) = (   0.1723070   0.4173357   1.2970152  )
        18        H      tau(  18) = (   0.3276930   0.6368934   0.0930106  )
        19        H      tau(  19) = (   0.8276930   0.9444502   2.3149986  )
        20        H      tau(  20) = (   0.6723070   0.1097789   1.1109940  )
        21        H      tau(  21) = (   0.9866632   0.2529812   1.0738172  )
        22        H      tau(  22) = (   0.5133368   0.8012478   2.2778218  )
        23        H      tau(  23) = (   0.0133368   0.7800958   0.1301874  )
        24        H      tau(  24) = (   0.4866632   0.2741333   1.3341920  )
        25        H      tau(  25) = (   0.8070837   0.3819303   1.1370512  )
        26        H      tau(  26) = (   0.6929163   0.6722987   2.3410559  )
        27        H      tau(  27) = (   0.1929163   0.9090449   0.0669534  )
        28        H      tau(  28) = (   0.3070837   0.1451842   1.2709580  )
        29        H      tau(  29) = (   0.9912844   0.4787782   1.0391912  )
        30        H      tau(  30) = (   0.5087156   0.5754509   2.2431958  )
        31        H      tau(  31) = (   0.0087156   1.0058927   0.1648134  )
        32        H      tau(  32) = (   0.4912844   0.0483364   1.3688180  )
        33        H      tau(  33) = (   1.0167491   0.4467194   1.6404806  )
        34        H      tau(  34) = (   0.4832509   0.6075096   0.4364760  )
        35        H      tau(  35) = (  -0.0167491   0.9738340   1.9715332  )
        36        H      tau(  36) = (   0.5167491   0.0803951   0.7675286  )
        37        H      tau(  37) = (   0.1624469   0.5968339   1.5797494  )
        38        H      tau(  38) = (   0.3375531   0.4573951   0.3757448  )
        39        H      tau(  39) = (   0.8375531   0.0697194   2.0322644  )
        40        H      tau(  40) = (   0.6624469   0.9845096   0.8282598  )
        41        H      tau(  41) = (   0.9669105   0.6553689   1.6611445  )
        42        H      tau(  42) = (   0.5330895   0.3988601   0.4571399  )
        43        H      tau(  43) = (   0.0330895   0.1282544   1.9508693  )
        44        H      tau(  44) = (   0.4669105   0.9259746   0.7468647  )
        45        Pb     tau(  45) = (   0.4869208   0.4427253   1.8530175  )
        46        Pb     tau(  46) = (   0.0130792   0.6115038   0.6490129  )
        47        Pb     tau(  47) = (   0.5130792   0.9698398   1.7589963  )
        48        Pb     tau(  48) = (   0.9869208   0.0843893   0.5549917  )
        49        C      tau(  49) = (   0.0048112   0.7255025   1.3064288  )
        50        C      tau(  50) = (   0.4951888   0.3287266   0.1024242  )
        51        C      tau(  51) = (   0.9951888   0.1983880   2.3055850  )
        52        C      tau(  52) = (   0.5048112   0.8558411   1.1015804  )
        53        C      tau(  53) = (   0.9576368   0.5613621   1.4024450  )
        54        C      tau(  54) = (   0.5423632   0.4928670   0.1984404  )
        55        C      tau(  55) = (   0.0423632   0.0342476   2.2095688  )
        56        C      tau(  56) = (   0.4576368   1.0199815   1.0055642  )
        57        C      tau(  57) = (   0.0310135   0.4030568   1.3080959  )
        58        C      tau(  58) = (   0.4689865   0.6511723   0.1040913  )
        59        C      tau(  59) = (   0.9689865   0.9301713   2.3039179  )
        60        C      tau(  60) = (   0.5310135   0.1240577   1.0999133  )
        61        C      tau(  61) = (   0.9490753   0.3778367   1.1299909  )
        62        C      tau(  62) = (   0.5509247   0.6763924   2.3339955  )
        63        C      tau(  63) = (   0.0509247   0.9049512   0.0740137  )
        64        C      tau(  64) = (   0.4490753   0.1492779   1.2780183  )
        65        I      tau(  65) = (   0.9065684   0.9601802   1.4245399  )
        66        I      tau(  66) = (   0.5934316   0.0940489   0.2205353  )
        67        I      tau(  67) = (   0.0934316   0.4330657   2.1874740  )
        68        I      tau(  68) = (   0.4065684   0.6211634   0.9834693  )
        69        Br     tau(  69) = (   0.2340521   0.1928292   1.7053346  )
        70        Br     tau(  70) = (   0.2659479   0.8613998   0.5013300  )
        71        Br     tau(  71) = (   0.7659479   0.7199437   1.9066793  )
        72        Br     tau(  72) = (   0.7340521   0.3342853   0.7026747  )
        73        Br     tau(  73) = (   0.4554666   0.6448083   1.5157753  )
        74        Br     tau(  74) = (   0.0445334   0.4094208   0.3117707  )
        75        Br     tau(  75) = (   0.5445334   0.1176937   2.0962385  )
        76        Br     tau(  76) = (   0.9554666   0.9365353   0.8922339  )
        77        Br     tau(  77) = (   0.7495186   0.2389377   1.6717118  )
        78        Br     tau(  78) = (   0.7504814   0.8152913   0.4677072  )
        79        Br     tau(  79) = (   0.2504814   0.7660522   1.9403021  )
        80        Br     tau(  80) = (   0.2495186   0.2881768   0.7362975  )
        81        N      tau(  81) = (   0.0307251   0.5667272   1.5829686  )
        82        N      tau(  82) = (   0.4692749   0.4875019   0.3789640  )
        83        N      tau(  83) = (   0.9692749   0.0396127   2.0290452  )
        84        N      tau(  84) = (   0.5307251   1.0146164   0.8250406  )

     -------------------------------------------------
     Parameters for Dispersion (Grimme-D2) Correction:
     -------------------------------------------------
       atom      VdW radius       C_6     

        Br         3.305        432.600
        C          2.744         60.710
        H          1.892          4.857
        I          3.575       1092.775
        N          2.640         42.670
        Pb         3.673       2191.161

   Crystallographic axes

     site n.     atom                  positions (cryst. coord.)
         1        H      tau(   1) = (  0.9512709  0.6866880  0.4882251  )
         2        H      tau(   2) = (  0.5487291  0.3133120  0.9882251  )
         3        H      tau(   3) = (  0.0487291  0.1866880  0.0117749  )
         4        H      tau(   4) = (  0.4512709  0.8133120  0.5117749  )
         5        H      tau(   5) = (  0.1455921  0.7034621  0.5395001  )
         6        H      tau(   6) = (  0.3544079  0.2965379  0.0395001  )
         7        H      tau(   7) = (  0.8544079  0.2034621  0.9604999  )
         8        H      tau(   8) = (  0.6455921  0.7965379  0.4604999  )
         9        H      tau(   9) = (  0.8167522  0.5204994  0.5887776  )
        10        H      tau(  10) = (  0.6832478  0.4795006  0.0887776  )
        11        H      tau(  11) = (  0.1832478  0.0204994  0.9112224  )
        12        H      tau(  12) = (  0.3167522  0.9795006  0.4112224  )
        13        H      tau(  13) = (  1.0068114  0.2739001  0.5769326  )
        14        H      tau(  14) = (  0.4931886  0.7260999  0.0769326  )
        15        H      tau(  15) = ( -0.0068114  0.7739001  0.9230674  )
        16        H      tau(  16) = (  0.5068114  0.2260999  0.4230674  )
        17        H      tau(  17) = (  0.1723070  0.3958681  0.5386255  )
        18        H      tau(  18) = (  0.3276930  0.6041319  0.0386255  )
        19        H      tau(  19) = (  0.8276930  0.8958681  0.9613745  )
        20        H      tau(  20) = (  0.6723070  0.1041319  0.4613745  )
        21        H      tau(  21) = (  0.9866632  0.2399680  0.4459357  )
        22        H      tau(  22) = (  0.5133368  0.7600320  0.9459357  )
        23        H      tau(  23) = (  0.0133368  0.7399680  0.0540643  )
        24        H      tau(  24) = (  0.4866632  0.2600320  0.5540643  )
        25        H      tau(  25) = (  0.8070837  0.3622840  0.4721956  )
        26        H      tau(  26) = (  0.6929163  0.6377160  0.9721956  )
        27        H      tau(  27) = (  0.1929163  0.8622840  0.0278044  )
        28        H      tau(  28) = (  0.3070837  0.1377160  0.5278044  )
        29        H      tau(  29) = (  0.9912844  0.4541500  0.4315561  )
        30        H      tau(  30) = (  0.5087156  0.5458500  0.9315561  )
        31        H      tau(  31) = (  0.0087156  0.9541500  0.0684439  )
        32        H      tau(  32) = (  0.4912844  0.0458500  0.5684439  )
        33        H      tau(  33) = (  1.0167491  0.4237404  0.6812601  )
        34        H      tau(  34) = (  0.4832509  0.5762596  0.1812601  )
        35        H      tau(  35) = ( -0.0167491  0.9237404  0.8187399  )
        36        H      tau(  36) = (  0.5167491  0.0762596  0.3187399  )
        37        H      tau(  37) = (  0.1624469  0.5661331  0.6560396  )
        38        H      tau(  38) = (  0.3375531  0.4338669  0.1560396  )
        39        H      tau(  39) = (  0.8375531  0.0661331  0.8439604  )
        40        H      tau(  40) = (  0.6624469  0.9338669  0.3439604  )
        41        H      tau(  41) = (  0.9669105  0.6216571  0.6898414  )
        42        H      tau(  42) = (  0.5330895  0.3783429  0.1898414  )
        43        H      tau(  43) = (  0.0330895  0.1216571  0.8101586  )
        44        H      tau(  44) = (  0.4669105  0.8783429  0.3101586  )
        45        Pb     tau(  45) = (  0.4869208  0.4199517  0.7695226  )
        46        Pb     tau(  46) = (  0.0130792  0.5800483  0.2695226  )
        47        Pb     tau(  47) = (  0.5130792  0.9199517  0.7304774  )
        48        Pb     tau(  48) = (  0.9869208  0.0800483  0.2304774  )
        49        C      tau(  49) = (  0.0048112  0.6881830  0.5425348  )
        50        C      tau(  50) = (  0.4951888  0.3118170  0.0425348  )
        51        C      tau(  51) = (  0.9951888  0.1881830  0.9574652  )
        52        C      tau(  52) = (  0.5048112  0.8118170  0.4574652  )
        53        C      tau(  53) = (  0.9576368  0.5324859  0.5824085  )
        54        C      tau(  54) = (  0.5423632  0.4675141  0.0824085  )
        55        C      tau(  55) = (  0.0423632  0.0324859  0.9175915  )
        56        C      tau(  56) = (  0.4576368  0.9675141  0.4175915  )
        57        C      tau(  57) = (  0.0310135  0.3823237  0.5432271  )
        58        C      tau(  58) = (  0.4689865  0.6176763  0.0432271  )
        59        C      tau(  59) = (  0.9689865  0.8823237  0.9567729  )
        60        C      tau(  60) = (  0.5310135  0.1176763  0.4567729  )
        61        C      tau(  61) = (  0.9490753  0.3584009  0.4692635  )
        62        C      tau(  62) = (  0.5509247  0.6415991  0.9692635  )
        63        C      tau(  63) = (  0.0509247  0.8584009  0.0307365  )
        64        C      tau(  64) = (  0.4490753  0.1415991  0.5307365  )
        65        I      tau(  65) = (  0.9065684  0.9107890  0.5915841  )
        66        I      tau(  66) = (  0.5934316  0.0892110  0.0915841  )
        67        I      tau(  67) = (  0.0934316  0.4107890  0.9084159  )
        68        I      tau(  68) = (  0.4065684  0.5892110  0.4084159  )
        69        Br     tau(  69) = (  0.2340521  0.1829102  0.7081927  )
        70        Br     tau(  70) = (  0.2659479  0.8170898  0.2081927  )
        71        Br     tau(  71) = (  0.7659479  0.6829102  0.7918073  )
        72        Br     tau(  72) = (  0.7340521  0.3170898  0.2918073  )
        73        Br     tau(  73) = (  0.4554666  0.6116396  0.6294724  )
        74        Br     tau(  74) = (  0.0445334  0.3883604  0.1294724  )
        75        Br     tau(  75) = (  0.5445334  0.1116396  0.8705276  )
        76        Br     tau(  76) = (  0.9554666  0.8883604  0.3705276  )
        77        Br     tau(  77) = (  0.7495186  0.2266469  0.6942298  )
        78        Br     tau(  78) = (  0.7504814  0.7733531  0.1942298  )
        79        Br     tau(  79) = (  0.2504814  0.7266469  0.8057702  )
        80        Br     tau(  80) = (  0.2495186  0.2733531  0.3057702  )
        81        N      tau(  81) = (  0.0307251  0.5375750  0.6573765  )
        82        N      tau(  82) = (  0.4692749  0.4624250  0.1573765  )
        83        N      tau(  83) = (  0.9692749  0.0375750  0.8426235  )
        84        N      tau(  84) = (  0.5307251  0.9624250  0.3426235  )

     number of k points=    18
                       cart. coord. in units 2pi/alat
        k(    1) = (   0.0000000   0.0000000   0.0000000), wk =   0.0625000
        k(    2) = (   0.0000000   0.0000000  -0.2076404), wk =   0.0625000
        k(    3) = (   0.0000000   0.2371401   0.0000000), wk =   0.1250000
        k(    4) = (   0.0000000   0.2371401  -0.2076404), wk =   0.1250000
        k(    5) = (   0.0000000  -0.4742802   0.0000000), wk =   0.0625000
        k(    6) = (   0.0000000  -0.4742802  -0.2076404), wk =   0.0625000
        k(    7) = (   0.2500000   0.0000000   0.0000000), wk =   0.1250000
        k(    8) = (   0.2500000   0.0000000  -0.2076404), wk =   0.1250000
        k(    9) = (   0.2500000   0.2371401   0.0000000), wk =   0.2500000
        k(   10) = (   0.2500000   0.2371401  -0.2076404), wk =   0.2500000
        k(   11) = (   0.2500000  -0.4742802   0.0000000), wk =   0.1250000
        k(   12) = (   0.2500000  -0.4742802  -0.2076404), wk =   0.1250000
        k(   13) = (  -0.5000000   0.0000000   0.0000000), wk =   0.0625000
        k(   14) = (  -0.5000000   0.0000000  -0.2076404), wk =   0.0625000
        k(   15) = (  -0.5000000   0.2371401   0.0000000), wk =   0.1250000
        k(   16) = (  -0.5000000   0.2371401  -0.2076404), wk =   0.1250000
        k(   17) = (  -0.5000000  -0.4742802   0.0000000), wk =   0.0625000
        k(   18) = (  -0.5000000  -0.4742802  -0.2076404), wk =   0.0625000

                       cryst. coord.
        k(    1) = (   0.0000000   0.0000000   0.0000000), wk =   0.0625000
        k(    2) = (   0.0000000   0.0000000  -0.5000000), wk =   0.0625000
        k(    3) = (   0.0000000   0.2500000   0.0000000), wk =   0.1250000
        k(    4) = (   0.0000000   0.2500000  -0.5000000), wk =   0.1250000
        k(    5) = (   0.0000000  -0.5000000   0.0000000), wk =   0.0625000
        k(    6) = (   0.0000000  -0.5000000  -0.5000000), wk =   0.0625000
        k(    7) = (   0.2500000   0.0000000   0.0000000), wk =   0.1250000
        k(    8) = (   0.2500000   0.0000000  -0.5000000), wk =   0.1250000
        k(    9) = (   0.2500000   0.2500000   0.0000000), wk =   0.2500000
        k(   10) = (   0.2500000   0.2500000  -0.5000000), wk =   0.2500000
        k(   11) = (   0.2500000  -0.5000000   0.0000000), wk =   0.1250000
        k(   12) = (   0.2500000  -0.5000000  -0.5000000), wk =   0.1250000
        k(   13) = (  -0.5000000   0.0000000   0.0000000), wk =   0.0625000
        k(   14) = (  -0.5000000   0.0000000  -0.5000000), wk =   0.0625000
        k(   15) = (  -0.5000000   0.2500000   0.0000000), wk =   0.1250000
        k(   16) = (  -0.5000000   0.2500000  -0.5000000), wk =   0.1250000
        k(   17) = (  -0.5000000  -0.5000000   0.0000000), wk =   0.0625000
        k(   18) = (  -0.5000000  -0.5000000  -0.5000000), wk =   0.0625000

     Dense  grid:  1065875 G-vectors     FFT dimensions: (  96, 100, 240)

     Dynamical RAM for                 wfc:       9.40 MB

     Dynamical RAM for     wfc (w. buffer):      37.61 MB

     Dynamical RAM for           str. fact:       3.05 MB

     Dynamical RAM for           local pot:       0.00 MB

     Dynamical RAM for          nlocal pot:      52.60 MB

     Dynamical RAM for                qrad:      23.12 MB

     Dynamical RAM for          rho,v,vnew:       3.28 MB

     Dynamical RAM for               rhoin:       1.09 MB

     Dynamical RAM for            rho*nmix:       8.13 MB

     Dynamical RAM for           G-vectors:       2.16 MB

     Dynamical RAM for          h,s,v(r/c):       4.01 MB

     Dynamical RAM for          <psi|beta>:       1.87 MB

     Dynamical RAM for                 psi:      18.80 MB

     Dynamical RAM for                hpsi:      18.80 MB

     Dynamical RAM for      wfcinit/wfcrot:      29.61 MB

     Estimated static dynamical RAM per process >     129.39 MB

     Estimated max dynamical RAM per process >     181.01 MB

     Estimated total dynamical RAM >      32.67 GB

     Initial potential from superposition of free atoms

     starting charge     295.9897, renormalised to     296.0000
     Starting wfcs are  224 randomized atomic wfcs

     total cpu time spent up to now is        5.8 secs

     Self-consistent Calculation

     iteration #  1     ecut=   100.00 Ry     beta= 0.40
     Davidson diagonalization with overlap

---- Real-time Memory Report at c_bands before calling an iterative solver
           221 MiB given to the printing process from OS
             0 MiB allocation reported by mallinfo(arena+hblkhd)
        701871 MiB available memory on the node where the printing process lives
------------------
     ethr =  1.00E-02,  avg # of iterations =  2.0

     total cpu time spent up to now is       12.0 secs

     total energy              =   -1372.35441445 Ry
     estimated scf accuracy    <       6.78827626 Ry

     iteration #  2     ecut=   100.00 Ry     beta= 0.40
     Davidson diagonalization with overlap

---- Real-time Memory Report at c_bands before calling an iterative solver
           241 MiB given to the printing process from OS
             0 MiB allocation reported by mallinfo(arena+hblkhd)
        700021 MiB available memory on the node where the printing process lives
------------------
     ethr =  2.29E-03,  avg # of iterations =  2.0

     total cpu time spent up to now is       18.3 secs

     total energy              =   -1373.21001314 Ry
     estimated scf accuracy    <       0.75190151 Ry

     iteration #  3     ecut=   100.00 Ry     beta= 0.40
     Davidson diagonalization with overlap

---- Real-time Memory Report at c_bands before calling an iterative solver
           244 MiB given to the printing process from OS
             0 MiB allocation reported by mallinfo(arena+hblkhd)
        699984 MiB available memory on the node where the printing process lives
------------------
     ethr =  2.54E-04,  avg # of iterations =  4.0

     total cpu time spent up to now is       25.5 secs

     total energy              =   -1373.25595299 Ry
     estimated scf accuracy    <       0.20514472 Ry

     iteration #  4     ecut=   100.00 Ry     beta= 0.40
     Davidson diagonalization with overlap

---- Real-time Memory Report at c_bands before calling an iterative solver
           246 MiB given to the printing process from OS
             0 MiB allocation reported by mallinfo(arena+hblkhd)
        699941 MiB available memory on the node where the printing process lives
------------------
     ethr =  6.93E-05,  avg # of iterations =  3.2

     total cpu time spent up to now is       33.0 secs

     total energy              =   -1373.28092179 Ry
     estimated scf accuracy    <       0.06335086 Ry

     iteration #  5     ecut=   100.00 Ry     beta= 0.40
     Davidson diagonalization with overlap

---- Real-time Memory Report at c_bands before calling an iterative solver
           247 MiB given to the printing process from OS
             0 MiB allocation reported by mallinfo(arena+hblkhd)
        699905 MiB available memory on the node where the printing process lives
------------------
     ethr =  2.14E-05,  avg # of iterations =  2.3

     total cpu time spent up to now is       39.3 secs

     total energy              =   -1373.28553113 Ry
     estimated scf accuracy    <       0.00629999 Ry

     iteration #  6     ecut=   100.00 Ry     beta= 0.40
     Davidson diagonalization with overlap

---- Real-time Memory Report at c_bands before calling an iterative solver
           248 MiB given to the printing process from OS
             0 MiB allocation reported by mallinfo(arena+hblkhd)
        699819 MiB available memory on the node where the printing process lives
------------------
     ethr =  2.13E-06,  avg # of iterations =  5.1

     total cpu time spent up to now is       48.6 secs

     total energy              =   -1373.28724213 Ry
     estimated scf accuracy    <       0.00633812 Ry

     iteration #  7     ecut=   100.00 Ry     beta= 0.40
     Davidson diagonalization with overlap

---- Real-time Memory Report at c_bands before calling an iterative solver
           249 MiB given to the printing process from OS
             0 MiB allocation reported by mallinfo(arena+hblkhd)
        699771 MiB available memory on the node where the printing process lives
------------------
     ethr =  2.13E-06,  avg # of iterations =  3.0

     total cpu time spent up to now is       55.6 secs

     total energy              =   -1373.28878242 Ry
     estimated scf accuracy    <       0.00016994 Ry

     iteration #  8     ecut=   100.00 Ry     beta= 0.40
     Davidson diagonalization with overlap

---- Real-time Memory Report at c_bands before calling an iterative solver
           250 MiB given to the printing process from OS
             0 MiB allocation reported by mallinfo(arena+hblkhd)
        699735 MiB available memory on the node where the printing process lives
------------------
     ethr =  5.74E-08,  avg # of iterations =  4.0

     total cpu time spent up to now is       63.7 secs

     total energy              =   -1373.28879769 Ry
     estimated scf accuracy    <       0.00010092 Ry

     iteration #  9     ecut=   100.00 Ry     beta= 0.40
     Davidson diagonalization with overlap

---- Real-time Memory Report at c_bands before calling an iterative solver
           251 MiB given to the printing process from OS
             0 MiB allocation reported by mallinfo(arena+hblkhd)
        699694 MiB available memory on the node where the printing process lives
------------------
     ethr =  3.41E-08,  avg # of iterations =  2.1

     total cpu time spent up to now is       69.8 secs

     total energy              =   -1373.28880836 Ry
     estimated scf accuracy    <       0.00000818 Ry

     iteration # 10     ecut=   100.00 Ry     beta= 0.40
     Davidson diagonalization with overlap

---- Real-time Memory Report at c_bands before calling an iterative solver
           252 MiB given to the printing process from OS
             0 MiB allocation reported by mallinfo(arena+hblkhd)
        699660 MiB available memory on the node where the printing process lives
------------------
     ethr =  2.76E-09,  avg # of iterations =  5.0

     total cpu time spent up to now is       79.3 secs

     total energy              =   -1373.28881158 Ry
     estimated scf accuracy    <       0.00000796 Ry

     iteration # 11     ecut=   100.00 Ry     beta= 0.40
     Davidson diagonalization with overlap

---- Real-time Memory Report at c_bands before calling an iterative solver
           253 MiB given to the printing process from OS
             0 MiB allocation reported by mallinfo(arena+hblkhd)
        699646 MiB available memory on the node where the printing process lives
------------------
     ethr =  2.69E-09,  avg # of iterations =  2.5

     total cpu time spent up to now is       86.0 secs

     total energy              =   -1373.28881289 Ry
     estimated scf accuracy    <       0.00000019 Ry

     iteration # 12     ecut=   100.00 Ry     beta= 0.40
     Davidson diagonalization with overlap

---- Real-time Memory Report at c_bands before calling an iterative solver
           254 MiB given to the printing process from OS
             0 MiB allocation reported by mallinfo(arena+hblkhd)
        699639 MiB available memory on the node where the printing process lives
------------------
     ethr =  6.41E-11,  avg # of iterations =  6.1

     total cpu time spent up to now is       97.5 secs

     total energy              =   -1373.28881302 Ry
     estimated scf accuracy    <       0.00000041 Ry

     iteration # 13     ecut=   100.00 Ry     beta= 0.40
     Davidson diagonalization with overlap

---- Real-time Memory Report at c_bands before calling an iterative solver
           254 MiB given to the printing process from OS
             0 MiB allocation reported by mallinfo(arena+hblkhd)
        699625 MiB available memory on the node where the printing process lives
------------------
     ethr =  6.41E-11,  avg # of iterations =  3.0

     total cpu time spent up to now is      104.5 secs

     total energy              =   -1373.28881308 Ry
     estimated scf accuracy    <       0.00000001 Ry

     iteration # 14     ecut=   100.00 Ry     beta= 0.40
     Davidson diagonalization with overlap

---- Real-time Memory Report at c_bands before calling an iterative solver
           254 MiB given to the printing process from OS
             0 MiB allocation reported by mallinfo(arena+hblkhd)
        699623 MiB available memory on the node where the printing process lives
------------------
     ethr =  3.89E-12,  avg # of iterations =  5.0

     total cpu time spent up to now is      114.2 secs

     total energy              =   -1373.28881308 Ry
     estimated scf accuracy    <       0.00000001 Ry

     iteration # 15     ecut=   100.00 Ry     beta= 0.40
     Davidson diagonalization with overlap

---- Real-time Memory Report at c_bands before calling an iterative solver
           254 MiB given to the printing process from OS
             0 MiB allocation reported by mallinfo(arena+hblkhd)
        699623 MiB available memory on the node where the printing process lives
------------------
     ethr =  3.65E-12,  avg # of iterations =  3.0

     total cpu time spent up to now is      121.2 secs

     total energy              =   -1373.28881309 Ry
     estimated scf accuracy    <          3.2E-10 Ry

     iteration # 16     ecut=   100.00 Ry     beta= 0.40
     Davidson diagonalization with overlap

---- Real-time Memory Report at c_bands before calling an iterative solver
           254 MiB given to the printing process from OS
             0 MiB allocation reported by mallinfo(arena+hblkhd)
        699614 MiB available memory on the node where the printing process lives
------------------
     ethr =  1.09E-13,  avg # of iterations =  3.6

     total cpu time spent up to now is      129.0 secs

     total energy              =   -1373.28881309 Ry
     estimated scf accuracy    <          1.9E-10 Ry

     iteration # 17     ecut=   100.00 Ry     beta= 0.40
     Davidson diagonalization with overlap

---- Real-time Memory Report at c_bands before calling an iterative solver
           254 MiB given to the printing process from OS
             0 MiB allocation reported by mallinfo(arena+hblkhd)
        699612 MiB available memory on the node where the printing process lives
------------------
     ethr =  1.00E-13,  avg # of iterations =  3.0

     total cpu time spent up to now is      136.0 secs

     total energy              =   -1373.28881309 Ry
     estimated scf accuracy    <          3.4E-11 Ry

     iteration # 18     ecut=   100.00 Ry     beta= 0.40
     Davidson diagonalization with overlap

---- Real-time Memory Report at c_bands before calling an iterative solver
           254 MiB given to the printing process from OS
             0 MiB allocation reported by mallinfo(arena+hblkhd)
        699608 MiB available memory on the node where the printing process lives
------------------
     ethr =  1.00E-13,  avg # of iterations =  1.0

     total cpu time spent up to now is      140.8 secs

     total energy              =   -1373.28881309 Ry
     estimated scf accuracy    <          2.8E-12 Ry

     iteration # 19     ecut=   100.00 Ry     beta= 0.40
     Davidson diagonalization with overlap

---- Real-time Memory Report at c_bands before calling an iterative solver
           254 MiB given to the printing process from OS
             0 MiB allocation reported by mallinfo(arena+hblkhd)
        699602 MiB available memory on the node where the printing process lives
------------------
     ethr =  1.00E-13,  avg # of iterations =  1.0

     total cpu time spent up to now is      145.6 secs

     End of self-consistent calculation

          k = 0.0000 0.0000 0.0000 (133245 PWs)   bands (ev):

   -16.9720 -16.9710 -16.9664 -16.9654 -12.6569 -12.6561 -12.6298 -12.6276
   -12.5754 -12.5719 -12.5555 -12.5548 -12.5398 -12.5391 -12.5310 -12.5270
   -12.5179 -12.5153 -12.5144 -12.5127 -12.5063 -12.5032 -12.5010 -12.4998
   -12.4818 -12.4818 -12.4573 -12.4568 -11.7163 -11.7043 -11.1565 -11.1340
   -10.9994 -10.9971 -10.9870 -10.9859 -10.9538 -10.8990 -10.8883 -10.8844
   -10.7847 -10.7596 -10.7085 -10.7084  -9.4641  -9.4346  -9.3602  -9.3600
    -9.2395  -9.2061  -8.6612  -8.6603  -8.1575  -8.1327  -8.0390  -8.0359
    -7.2852  -7.2663  -7.1718  -7.1617  -6.2945  -6.2751  -6.2589  -6.2373
    -5.9011  -5.8921  -5.8265  -5.7972  -4.7177  -4.7145  -4.6128  -4.6052
    -3.5173  -3.5097  -3.4828  -3.4790  -3.1253  -3.1118  -2.7550  -2.7543
    -2.6728  -2.6685  -2.6417  -2.6302  -1.9099  -1.8937  -1.6946  -1.6898
    -1.5541  -1.5083  -1.4908  -1.4859  -1.2308  -1.2297  -1.2094  -1.1846
    -0.9957  -0.8928  -0.8107  -0.7544  -0.6584  -0.5885  -0.4931  -0.3818
    -0.3102  -0.2635  -0.0856  -0.0176   0.1842   0.1945   0.2483   0.2803
     0.3681   0.3811   0.5005   0.5070   0.5256   0.5647   0.8213   0.8413
     0.8706   0.8864   0.8980   1.0021   1.0047   1.0108   1.1002   1.1157
     1.1691   1.2174   1.2281   1.2829   1.3005   1.3782   1.4278   1.4947
     1.4975   1.5305   1.5408   1.5575   1.5956   1.6244   1.6619   1.7150
     1.7252   1.7553   1.7797   1.8054

     occupation numbers 
     1.0000   1.0000   1.0000   1.0000   1.0000   1.0000   1.0000   1.0000
     1.0000   1.0000   1.0000   1.0000   1.0000   1.0000   1.0000   1.0000
     1.0000   1.0000   1.0000   1.0000   1.0000   1.0000   1.0000   1.0000
     1.0000   1.0000   1.0000   1.0000   1.0000   1.0000   1.0000   1.0000
     1.0000   1.0000   1.0000   1.0000   1.0000   1.0000   1.0000   1.0000
     1.0000   1.0000   1.0000   1.0000   1.0000   1.0000   1.0000   1.0000
     1.0000   1.0000   1.0000   1.0000   1.0000   1.0000   1.0000   1.0000
     1.0000   1.0000   1.0000   1.0000   1.0000   1.0000   1.0000   1.0000
     1.0000   1.0000   1.0000   1.0000   1.0000   1.0000   1.0000   1.0000
     1.0000   1.0000   1.0000   1.0000   1.0000   1.0000   1.0000   1.0000
     1.0000   1.0000   1.0000   1.0000   1.0000   1.0000   1.0000   1.0000
     1.0000   1.0000   1.0000   1.0000   1.0000   1.0000   1.0000   1.0000
     1.0000   1.0000   1.0000   1.0000   1.0000   1.0000   1.0000   1.0000
     1.0000   1.0000   1.0000   1.0000   1.0000   1.0000   1.0000   1.0000
     1.0000   1.0000   1.0000   1.0000   1.0000   1.0000   1.0000   1.0000
     1.0000   1.0000   1.0000   1.0000   1.0000   1.0000   1.0000   1.0000
     1.0000   1.0000   1.0000   1.0000   1.0000   1.0000   1.0000   1.0000
     1.0000   1.0000   1.0000   1.0000   1.0000   1.0000   1.0000   1.0000
     1.0000   1.0000   1.0000   1.0000

          k = 0.0000 0.0000-0.2076 (133292 PWs)   bands (ev):

   -16.9715 -16.9715 -16.9659 -16.9659 -12.6565 -12.6565 -12.6288 -12.6288
   -12.5736 -12.5736 -12.5551 -12.5551 -12.5395 -12.5395 -12.5289 -12.5289
   -12.5168 -12.5168 -12.5137 -12.5137 -12.5047 -12.5047 -12.5003 -12.5003
   -12.4818 -12.4818 -12.4571 -12.4571 -11.7103 -11.7103 -11.1458 -11.1458
   -10.9963 -10.9963 -10.9923 -10.9923 -10.9196 -10.9196 -10.8905 -10.8905
   -10.7701 -10.7701 -10.7086 -10.7086  -9.4504  -9.4504  -9.3596  -9.3596
    -9.2223  -9.2223  -8.6607  -8.6607  -8.1454  -8.1454  -8.0371  -8.0371
    -7.2764  -7.2764  -7.1661  -7.1661  -6.2873  -6.2873  -6.2457  -6.2457
    -5.8969  -5.8969  -5.8114  -5.8114  -4.7162  -4.7162  -4.6090  -4.6090
    -3.5141  -3.5141  -3.4804  -3.4804  -3.1184  -3.1184  -2.7552  -2.7552
    -2.6703  -2.6703  -2.6357  -2.6357  -1.9024  -1.9024  -1.6918  -1.6918
    -1.5300  -1.5300  -1.4879  -1.4879  -1.2339  -1.2339  -1.1960  -1.1960
    -0.9596  -0.9596  -0.7623  -0.7623  -0.6296  -0.6296  -0.4365  -0.4365
    -0.2935  -0.2935  -0.0477  -0.0477   0.1978   0.1978   0.2632   0.2632
     0.3713   0.3713   0.5120   0.5120   0.5374   0.5374   0.8322   0.8322
     0.8571   0.8571   0.9368   0.9368   1.0358   1.0358   1.1061   1.1061
     1.2154   1.2154   1.2465   1.2465   1.3460   1.3460   1.4485   1.4485
     1.5053   1.5053   1.5445   1.5445   1.6100   1.6100   1.7022   1.7022
     1.7407   1.7407   1.7919   1.7919

     occupation numbers 
     1.0000   1.0000   1.0000   1.0000   1.0000   1.0000   1.0000   1.0000
     1.0000   1.0000   1.0000   1.0000   1.0000   1.0000   1.0000   1.0000
     1.0000   1.0000   1.0000   1.0000   1.0000   1.0000   1.0000   1.0000
     1.0000   1.0000   1.0000   1.0000   1.0000   1.0000   1.0000   1.0000
     1.0000   1.0000   1.0000   1.0000   1.0000   1.0000   1.0000   1.0000
     1.0000   1.0000   1.0000   1.0000   1.0000   1.0000   1.0000   1.0000
     1.0000   1.0000   1.0000   1.0000   1.0000   1.0000   1.0000   1.0000
     1.0000   1.0000   1.0000   1.0000   1.0000   1.0000   1.0000   1.0000
     1.0000   1.0000   1.0000   1.0000   1.0000   1.0000   1.0000   1.0000
     1.0000   1.0000   1.0000   1.0000   1.0000   1.0000   1.0000   1.0000
     1.0000   1.0000   1.0000   1.0000   1.0000   1.0000   1.0000   1.0000
     1.0000   1.0000   1.0000   1.0000   1.0000   1.0000   1.0000   1.0000
     1.0000   1.0000   1.0000   1.0000   1.0000   1.0000   1.0000   1.0000
     1.0000   1.0000   1.0000   1.0000   1.0000   1.0000   1.0000   1.0000
     1.0000   1.0000   1.0000   1.0000   1.0000   1.0000   1.0000   1.0000
     1.0000   1.0000   1.0000   1.0000   1.0000   1.0000   1.0000   1.0000
     1.0000   1.0000   1.0000   1.0000   1.0000   1.0000   1.0000   1.0000
     1.0000   1.0000   1.0000   1.0000   1.0000   1.0000   1.0000   1.0000
     1.0000   1.0000   1.0000   1.0000

          k = 0.0000 0.2371 0.0000 (133239 PWs)   bands (ev):

   -16.9710 -16.9702 -16.9671 -16.9663 -12.6402 -12.6397 -12.6206 -12.6181
   -12.5722 -12.5693 -12.5626 -12.5604 -12.5513 -12.5485 -12.5266 -12.5234
   -12.5187 -12.5179 -12.5140 -12.5106 -12.5101 -12.5061 -12.4949 -12.4937
   -12.4935 -12.4932 -12.4578 -12.4576 -11.6597 -11.6437 -11.2905 -11.2563
   -11.0208 -11.0094 -10.9707 -10.9476 -10.9370 -10.9158 -10.8798 -10.8256
   -10.8124 -10.7643 -10.7424 -10.7393  -9.4201  -9.4009  -9.3498  -9.3496
    -9.1374  -9.1128  -8.7316  -8.7239  -8.1284  -8.1050  -8.0382  -8.0308
    -7.2774  -7.2639  -7.1781  -7.1718  -6.2907  -6.2749  -6.2569  -6.2399
    -5.9017  -5.8951  -5.8269  -5.8059  -4.7177  -4.7147  -4.6212  -4.6153
    -3.6270  -3.6244  -3.5246  -3.5200  -3.0695  -3.0684  -2.8256  -2.8205
    -2.6947  -2.6930  -2.6491  -2.6445  -1.8759  -1.8630  -1.6864  -1.6761
    -1.5391  -1.4910  -1.4866  -1.4366  -1.2825  -1.2656  -1.2481  -1.2232
    -0.7965  -0.7743  -0.7062  -0.5817  -0.5748  -0.5312  -0.4755  -0.4188
    -0.3760  -0.2910  -0.0544  -0.0434   0.1380   0.1525   0.2198   0.2583
     0.2784   0.2962   0.3024   0.3466   0.6432   0.6624   0.7912   0.8892
     0.8958   0.9086   1.0251   1.0584   1.0617   1.0928   1.1153   1.1544
     1.2095   1.2365   1.2720   1.2814   1.3471   1.3734   1.3781   1.4436
     1.4575   1.5178   1.5584   1.5590   1.6008   1.6160   1.6378   1.6905
     1.7448   1.7478   1.7806   1.7818

     occupation numbers 
     1.0000   1.0000   1.0000   1.0000   1.0000   1.0000   1.0000   1.0000
     1.0000   1.0000   1.0000   1.0000   1.0000   1.0000   1.0000   1.0000
     1.0000   1.0000   1.0000   1.0000   1.0000   1.0000   1.0000   1.0000
     1.0000   1.0000   1.0000   1.0000   1.0000   1.0000   1.0000   1.0000
     1.0000   1.0000   1.0000   1.0000   1.0000   1.0000   1.0000   1.0000
     1.0000   1.0000   1.0000   1.0000   1.0000   1.0000   1.0000   1.0000
     1.0000   1.0000   1.0000   1.0000   1.0000   1.0000   1.0000   1.0000
     1.0000   1.0000   1.0000   1.0000   1.0000   1.0000   1.0000   1.0000
     1.0000   1.0000   1.0000   1.0000   1.0000   1.0000   1.0000   1.0000
     1.0000   1.0000   1.0000   1.0000   1.0000   1.0000   1.0000   1.0000
     1.0000   1.0000   1.0000   1.0000   1.0000   1.0000   1.0000   1.0000
     1.0000   1.0000   1.0000   1.0000   1.0000   1.0000   1.0000   1.0000
     1.0000   1.0000   1.0000   1.0000   1.0000   1.0000   1.0000   1.0000
     1.0000   1.0000   1.0000   1.0000   1.0000   1.0000   1.0000   1.0000
     1.0000   1.0000   1.0000   1.0000   1.0000   1.0000   1.0000   1.0000
     1.0000   1.0000   1.0000   1.0000   1.0000   1.0000   1.0000   1.0000
     1.0000   1.0000   1.0000   1.0000   1.0000   1.0000   1.0000   1.0000
     1.0000   1.0000   1.0000   1.0000   1.0000   1.0000   1.0000   1.0000
     1.0000   1.0000   1.0000   1.0000

          k = 0.0000 0.2371-0.2076 (133242 PWs)   bands (ev):

   -16.9706 -16.9706 -16.9666 -16.9666 -12.6399 -12.6399 -12.6194 -12.6194
   -12.5706 -12.5706 -12.5617 -12.5617 -12.5498 -12.5498 -12.5246 -12.5246
   -12.5188 -12.5188 -12.5127 -12.5127 -12.5076 -12.5076 -12.4943 -12.4943
   -12.4933 -12.4933 -12.4577 -12.4577 -11.6518 -11.6518 -11.2747 -11.2747
   -11.0034 -11.0034 -10.9708 -10.9708 -10.9313 -10.9313 -10.8541 -10.8541
   -10.7796 -10.7796 -10.7419 -10.7419  -9.4109  -9.4109  -9.3495  -9.3495
    -9.1249  -9.1249  -8.7277  -8.7277  -8.1171  -8.1171  -8.0341  -8.0341
    -7.2710  -7.2710  -7.1747  -7.1747  -6.2845  -6.2845  -6.2467  -6.2467
    -5.8980  -5.8980  -5.8168  -5.8168  -4.7162  -4.7162  -4.6183  -4.6183
    -3.6257  -3.6257  -3.5223  -3.5223  -3.0690  -3.0690  -2.8229  -2.8229
    -2.6941  -2.6941  -2.6467  -2.6467  -1.8701  -1.8701  -1.6810  -1.6810
    -1.5131  -1.5131  -1.4617  -1.4617  -1.2725  -1.2725  -1.2397  -1.2397
    -0.7825  -0.7825  -0.6641  -0.6641  -0.5378  -0.5378  -0.4612  -0.4612
    -0.3218  -0.3218  -0.0485  -0.0485   0.1800   0.1800   0.2071   0.2071
     0.2818   0.2818   0.3354   0.3354   0.6542   0.6542   0.8240   0.8240
     0.9079   0.9079   1.0398   1.0398   1.0825   1.0825   1.1303   1.1303
     1.2437   1.2437   1.2722   1.2722   1.3407   1.3407   1.4136   1.4136
     1.4978   1.4978   1.5278   1.5278   1.6286   1.6286   1.6882   1.6882
     1.7253   1.7253   1.7864   1.7864

     occupation numbers 
     1.0000   1.0000   1.0000   1.0000   1.0000   1.0000   1.0000   1.0000
     1.0000   1.0000   1.0000   1.0000   1.0000   1.0000   1.0000   1.0000
     1.0000   1.0000   1.0000   1.0000   1.0000   1.0000   1.0000   1.0000
     1.0000   1.0000   1.0000   1.0000   1.0000   1.0000   1.0000   1.0000
     1.0000   1.0000   1.0000   1.0000   1.0000   1.0000   1.0000   1.0000
     1.0000   1.0000   1.0000   1.0000   1.0000   1.0000   1.0000   1.0000
     1.0000   1.0000   1.0000   1.0000   1.0000   1.0000   1.0000   1.0000
     1.0000   1.0000   1.0000   1.0000   1.0000   1.0000   1.0000   1.0000
     1.0000   1.0000   1.0000   1.0000   1.0000   1.0000   1.0000   1.0000
     1.0000   1.0000   1.0000   1.0000   1.0000   1.0000   1.0000   1.0000
     1.0000   1.0000   1.0000   1.0000   1.0000   1.0000   1.0000   1.0000
     1.0000   1.0000   1.0000   1.0000   1.0000   1.0000   1.0000   1.0000
     1.0000   1.0000   1.0000   1.0000   1.0000   1.0000   1.0000   1.0000
     1.0000   1.0000   1.0000   1.0000   1.0000   1.0000   1.0000   1.0000
     1.0000   1.0000   1.0000   1.0000   1.0000   1.0000   1.0000   1.0000
     1.0000   1.0000   1.0000   1.0000   1.0000   1.0000   1.0000   1.0000
     1.0000   1.0000   1.0000   1.0000   1.0000   1.0000   1.0000   1.0000
     1.0000   1.0000   1.0000   1.0000   1.0000   1.0000   1.0000   1.0000
     1.0000   1.0000   1.0000   1.0000

          k = 0.0000-0.4743 0.0000 (133144 PWs)   bands (ev):

   -16.9688 -16.9688 -16.9683 -16.9683 -12.6032 -12.6032 -12.6030 -12.6030
   -12.5899 -12.5899 -12.5872 -12.5872 -12.5411 -12.5411 -12.5306 -12.5306
   -12.5186 -12.5186 -12.5142 -12.5142 -12.5076 -12.5076 -12.5066 -12.5066
   -12.4712 -12.4712 -12.4710 -12.4710 -11.5018 -11.5018 -11.4749 -11.4749
   -11.0346 -11.0346 -10.9602 -10.9602 -10.8741 -10.8741 -10.8486 -10.8486
   -10.8152 -10.8152 -10.7701 -10.7701  -9.3698  -9.3698  -9.3422  -9.3422
    -8.9170  -8.9170  -8.9083  -8.9083  -8.0775  -8.0775  -8.0397  -8.0397
    -7.2635  -7.2635  -7.1852  -7.1852  -6.2811  -6.2811  -6.2485  -6.2485
    -5.9007  -5.9007  -5.8211  -5.8211  -4.7170  -4.7170  -4.6276  -4.6276
    -3.7035  -3.7035  -3.5926  -3.5926  -2.9714  -2.9714  -2.9330  -2.9330
    -2.7062  -2.7062  -2.6679  -2.6679  -1.8258  -1.8258  -1.6841  -1.6841
    -1.5016  -1.5016  -1.3860  -1.3860  -1.3535  -1.3535  -1.2493  -1.2493
    -0.7113  -0.7113  -0.5238  -0.5238  -0.4996  -0.4996  -0.3828  -0.3828
    -0.2108  -0.2108  -0.1803  -0.1803   0.0990   0.0990   0.1340   0.1340
     0.1820   0.1820   0.2476   0.2476   0.8470   0.8470   0.8785   0.8785
     0.9375   0.9375   0.9821   0.9821   1.0838   1.0838   1.1537   1.1537
     1.2766   1.2766   1.3352   1.3352   1.3453   1.3453   1.3586   1.3586
     1.4868   1.4868   1.5535   1.5535   1.6084   1.6084   1.6716   1.6716
     1.7217   1.7217   1.7985   1.7985

     occupation numbers 
     1.0000   1.0000   1.0000   1.0000   1.0000   1.0000   1.0000   1.0000
     1.0000   1.0000   1.0000   1.0000   1.0000   1.0000   1.0000   1.0000
     1.0000   1.0000   1.0000   1.0000   1.0000   1.0000   1.0000   1.0000
     1.0000   1.0000   1.0000   1.0000   1.0000   1.0000   1.0000   1.0000
     1.0000   1.0000   1.0000   1.0000   1.0000   1.0000   1.0000   1.0000
     1.0000   1.0000   1.0000   1.0000   1.0000   1.0000   1.0000   1.0000
     1.0000   1.0000   1.0000   1.0000   1.0000   1.0000   1.0000   1.0000
     1.0000   1.0000   1.0000   1.0000   1.0000   1.0000   1.0000   1.0000
     1.0000   1.0000   1.0000   1.0000   1.0000   1.0000   1.0000   1.0000
     1.0000   1.0000   1.0000   1.0000   1.0000   1.0000   1.0000   1.0000
     1.0000   1.0000   1.0000   1.0000   1.0000   1.0000   1.0000   1.0000
     1.0000   1.0000   1.0000   1.0000   1.0000   1.0000   1.0000   1.0000
     1.0000   1.0000   1.0000   1.0000   1.0000   1.0000   1.0000   1.0000
     1.0000   1.0000   1.0000   1.0000   1.0000   1.0000   1.0000   1.0000
     1.0000   1.0000   1.0000   1.0000   1.0000   1.0000   1.0000   1.0000
     1.0000   1.0000   1.0000   1.0000   1.0000   1.0000   1.0000   1.0000
     1.0000   1.0000   1.0000   1.0000   1.0000   1.0000   1.0000   1.0000
     1.0000   1.0000   1.0000   1.0000   1.0000   1.0000   1.0000   1.0000
     1.0000   1.0000   1.0000   1.0000

          k = 0.0000-0.4743-0.2076 (133244 PWs)   bands (ev):

   -16.9688 -16.9688 -16.9683 -16.9683 -12.6031 -12.6031 -12.6030 -12.6030
   -12.5899 -12.5899 -12.5872 -12.5872 -12.5411 -12.5411 -12.5307 -12.5307
   -12.5173 -12.5173 -12.5157 -12.5157 -12.5073 -12.5073 -12.5067 -12.5067
   -12.4712 -12.4712 -12.4711 -12.4711 -11.4942 -11.4942 -11.4833 -11.4833
   -11.0046 -11.0046 -11.0012 -11.0012 -10.8613 -10.8613 -10.8492 -10.8492
   -10.8044 -10.8044 -10.7815 -10.7815  -9.3692  -9.3692  -9.3428  -9.3428
    -8.9140  -8.9140  -8.9114  -8.9114  -8.0774  -8.0774  -8.0398  -8.0398
    -7.2635  -7.2635  -7.1853  -7.1853  -6.2811  -6.2811  -6.2485  -6.2485
    -5.8993  -5.8993  -5.8224  -5.8224  -4.7169  -4.7169  -4.6277  -4.6277
    -3.7033  -3.7033  -3.5927  -3.5927  -2.9708  -2.9708  -2.9337  -2.9337
    -2.7063  -2.7063  -2.6678  -2.6678  -1.8260  -1.8260  -1.6841  -1.6841
    -1.4858  -1.4858  -1.3976  -1.3976  -1.3485  -1.3485  -1.2636  -1.2636
    -0.7098  -0.7098  -0.5522  -0.5522  -0.4430  -0.4430  -0.3961  -0.3961
    -0.2365  -0.2365  -0.1750  -0.1750   0.1090   0.1090   0.1410   0.1410
     0.2107   0.2107   0.2156   0.2156   0.8565   0.8565   0.8682   0.8682
     0.9305   0.9305   0.9883   0.9883   1.1096   1.1096   1.1125   1.1125
     1.2916   1.2916   1.3055   1.3055   1.3570   1.3570   1.3630   1.3630
     1.5218   1.5218   1.5423   1.5423   1.5940   1.5940   1.6529   1.6529
     1.7655   1.7655   1.7751   1.7751

     occupation numbers 
     1.0000   1.0000   1.0000   1.0000   1.0000   1.0000   1.0000   1.0000
     1.0000   1.0000   1.0000   1.0000   1.0000   1.0000   1.0000   1.0000
     1.0000   1.0000   1.0000   1.0000   1.0000   1.0000   1.0000   1.0000
     1.0000   1.0000   1.0000   1.0000   1.0000   1.0000   1.0000   1.0000
     1.0000   1.0000   1.0000   1.0000   1.0000   1.0000   1.0000   1.0000
     1.0000   1.0000   1.0000   1.0000   1.0000   1.0000   1.0000   1.0000
     1.0000   1.0000   1.0000   1.0000   1.0000   1.0000   1.0000   1.0000
     1.0000   1.0000   1.0000   1.0000   1.0000   1.0000   1.0000   1.0000
     1.0000   1.0000   1.0000   1.0000   1.0000   1.0000   1.0000   1.0000
     1.0000   1.0000   1.0000   1.0000   1.0000   1.0000   1.0000   1.0000
     1.0000   1.0000   1.0000   1.0000   1.0000   1.0000   1.0000   1.0000
     1.0000   1.0000   1.0000   1.0000   1.0000   1.0000   1.0000   1.0000
     1.0000   1.0000   1.0000   1.0000   1.0000   1.0000   1.0000   1.0000
     1.0000   1.0000   1.0000   1.0000   1.0000   1.0000   1.0000   1.0000
     1.0000   1.0000   1.0000   1.0000   1.0000   1.0000   1.0000   1.0000
     1.0000   1.0000   1.0000   1.0000   1.0000   1.0000   1.0000   1.0000
     1.0000   1.0000   1.0000   1.0000   1.0000   1.0000   1.0000   1.0000
     1.0000   1.0000   1.0000   1.0000   1.0000   1.0000   1.0000   1.0000
     1.0000   1.0000   1.0000   1.0000

          k = 0.2500 0.0000 0.0000 (133192 PWs)   bands (ev):

   -16.9716 -16.9709 -16.9662 -16.9655 -12.6599 -12.6593 -12.6277 -12.6262
   -12.5687 -12.5655 -12.5573 -12.5508 -12.5399 -12.5391 -12.5316 -12.5272
   -12.5222 -12.5191 -12.5154 -12.5150 -12.5062 -12.5039 -12.5029 -12.5014
   -12.4817 -12.4816 -12.4574 -12.4571 -11.7010 -11.6921 -11.1158 -11.0915
   -11.0349 -11.0342 -10.9863 -10.9745 -10.9689 -10.9096 -10.9019 -10.8979
   -10.7590 -10.7580 -10.7509 -10.7370  -9.4548  -9.4200  -9.3835  -9.3692
    -9.2237  -9.2038  -8.6467  -8.6455  -8.1385  -8.1186  -8.0536  -8.0511
    -7.2551  -7.2365  -7.1749  -7.1625  -6.2841  -6.2697  -6.2590  -6.2428
    -5.8896  -5.8769  -5.8370  -5.8104  -4.7080  -4.7034  -4.6329  -4.6269
    -3.5159  -3.5097  -3.4896  -3.4850  -3.0783  -3.0671  -2.8267  -2.8234
    -2.6662  -2.6607  -2.6307  -2.6211  -1.9100  -1.9003  -1.7660  -1.7466
    -1.5254  -1.4949  -1.4851  -1.4739  -1.2566  -1.2263  -1.2237  -1.2008
    -0.9348  -0.8280  -0.8251  -0.7445  -0.6122  -0.6021  -0.5385  -0.3940
    -0.3404  -0.2908  -0.0955  -0.0429   0.1896   0.2176   0.2554   0.3267
     0.3420   0.3514   0.5050   0.5533   0.5992   0.6015   0.8144   0.8562
     0.8892   0.9146   0.9380   0.9707   1.0083   1.0546   1.0803   1.0832
     1.2304   1.2395   1.2799   1.3234   1.3282   1.3412   1.3451   1.3717
     1.4627   1.4900   1.5055   1.5453   1.5586   1.5821   1.6244   1.6679
     1.7122   1.7308   1.7683   1.7961

     occupation numbers 
     1.0000   1.0000   1.0000   1.0000   1.0000   1.0000   1.0000   1.0000
     1.0000   1.0000   1.0000   1.0000   1.0000   1.0000   1.0000   1.0000
     1.0000   1.0000   1.0000   1.0000   1.0000   1.0000   1.0000   1.0000
     1.0000   1.0000   1.0000   1.0000   1.0000   1.0000   1.0000   1.0000
     1.0000   1.0000   1.0000   1.0000   1.0000   1.0000   1.0000   1.0000
     1.0000   1.0000   1.0000   1.0000   1.0000   1.0000   1.0000   1.0000
     1.0000   1.0000   1.0000   1.0000   1.0000   1.0000   1.0000   1.0000
     1.0000   1.0000   1.0000   1.0000   1.0000   1.0000   1.0000   1.0000
     1.0000   1.0000   1.0000   1.0000   1.0000   1.0000   1.0000   1.0000
     1.0000   1.0000   1.0000   1.0000   1.0000   1.0000   1.0000   1.0000
     1.0000   1.0000   1.0000   1.0000   1.0000   1.0000   1.0000   1.0000
     1.0000   1.0000   1.0000   1.0000   1.0000   1.0000   1.0000   1.0000
     1.0000   1.0000   1.0000   1.0000   1.0000   1.0000   1.0000   1.0000
     1.0000   1.0000   1.0000   1.0000   1.0000   1.0000   1.0000   1.0000
     1.0000   1.0000   1.0000   1.0000   1.0000   1.0000   1.0000   1.0000
     1.0000   1.0000   1.0000   1.0000   1.0000   1.0000   1.0000   1.0000
     1.0000   1.0000   1.0000   1.0000   1.0000   1.0000   1.0000   1.0000
     1.0000   1.0000   1.0000   1.0000   1.0000   1.0000   1.0000   1.0000
     1.0000   1.0000   1.0000   1.0000

          k = 0.2500 0.0000-0.2076 (133162 PWs)   bands (ev):

   -16.9713 -16.9713 -16.9658 -16.9658 -12.6596 -12.6596 -12.6270 -12.6270
   -12.5675 -12.5675 -12.5538 -12.5538 -12.5396 -12.5396 -12.5291 -12.5291
   -12.5208 -12.5208 -12.5153 -12.5153 -12.5051 -12.5051 -12.5020 -12.5020
   -12.4817 -12.4817 -12.4572 -12.4572 -11.6966 -11.6966 -11.1044 -11.1044
   -11.0354 -11.0354 -10.9853 -10.9853 -10.9345 -10.9345 -10.8986 -10.8986
   -10.7584 -10.7584 -10.7436 -10.7436  -9.4399  -9.4399  -9.3742  -9.3742
    -9.2135  -9.2135  -8.6461  -8.6461  -8.1288  -8.1288  -8.0521  -8.0521
    -7.2466  -7.2466  -7.1679  -7.1679  -6.2788  -6.2788  -6.2490  -6.2490
    -5.8838  -5.8838  -5.8231  -5.8231  -4.7057  -4.7057  -4.6299  -4.6299
    -3.5134  -3.5134  -3.4869  -3.4869  -3.0725  -3.0725  -2.8252  -2.8252
    -2.6638  -2.6638  -2.6254  -2.6254  -1.9058  -1.9058  -1.7554  -1.7554
    -1.5094  -1.5094  -1.4799  -1.4799  -1.2462  -1.2462  -1.2091  -1.2091
    -0.9040  -0.9040  -0.7676  -0.7676  -0.5863  -0.5863  -0.4945  -0.4945
    -0.3030  -0.3030  -0.0729  -0.0729   0.2166   0.2166   0.2587   0.2587
     0.3772   0.3772   0.5253   0.5253   0.5954   0.5954   0.8359   0.8359
     0.8887   0.8887   0.9616   0.9616   1.0415   1.0415   1.0822   1.0822
     1.2450   1.2450   1.2855   1.2855   1.3406   1.3406   1.3612   1.3612
     1.4737   1.4737   1.4942   1.4942   1.6115   1.6115   1.6299   1.6299
     1.7312   1.7312   1.7762   1.7762

     occupation numbers 
     1.0000   1.0000   1.0000   1.0000   1.0000   1.0000   1.0000   1.0000
     1.0000   1.0000   1.0000   1.0000   1.0000   1.0000   1.0000   1.0000
     1.0000   1.0000   1.0000   1.0000   1.0000   1.0000   1.0000   1.0000
     1.0000   1.0000   1.0000   1.0000   1.0000   1.0000   1.0000   1.0000
     1.0000   1.0000   1.0000   1.0000   1.0000   1.0000   1.0000   1.0000
     1.0000   1.0000   1.0000   1.0000   1.0000   1.0000   1.0000   1.0000
     1.0000   1.0000   1.0000   1.0000   1.0000   1.0000   1.0000   1.0000
     1.0000   1.0000   1.0000   1.0000   1.0000   1.0000   1.0000   1.0000
     1.0000   1.0000   1.0000   1.0000   1.0000   1.0000   1.0000   1.0000
     1.0000   1.0000   1.0000   1.0000   1.0000   1.0000   1.0000   1.0000
     1.0000   1.0000   1.0000   1.0000   1.0000   1.0000   1.0000   1.0000
     1.0000   1.0000   1.0000   1.0000   1.0000   1.0000   1.0000   1.0000
     1.0000   1.0000   1.0000   1.0000   1.0000   1.0000   1.0000   1.0000
     1.0000   1.0000   1.0000   1.0000   1.0000   1.0000   1.0000   1.0000
     1.0000   1.0000   1.0000   1.0000   1.0000   1.0000   1.0000   1.0000
     1.0000   1.0000   1.0000   1.0000   1.0000   1.0000   1.0000   1.0000
     1.0000   1.0000   1.0000   1.0000   1.0000   1.0000   1.0000   1.0000
     1.0000   1.0000   1.0000   1.0000   1.0000   1.0000   1.0000   1.0000
     1.0000   1.0000   1.0000   1.0000

          k = 0.2500 0.2371 0.0000 (133249 PWs)   bands (ev):

   -16.9707 -16.9701 -16.9668 -16.9663 -12.6434 -12.6429 -12.6186 -12.6169
   -12.5726 -12.5709 -12.5600 -12.5535 -12.5487 -12.5473 -12.5276 -12.5250
   -12.5212 -12.5208 -12.5138 -12.5124 -12.5092 -12.5074 -12.4949 -12.4943
   -12.4934 -12.4932 -12.4579 -12.4577 -11.6414 -11.6294 -11.2559 -11.2270
   -11.0529 -11.0271 -11.0065 -10.9568 -10.9402 -10.9056 -10.8978 -10.8515
   -10.7870 -10.7786 -10.7654 -10.7452  -9.4113  -9.3921  -9.3605  -9.3577
    -9.1230  -9.1070  -8.7148  -8.7093  -8.1120  -8.0949  -8.0479  -8.0427
    -7.2506  -7.2373  -7.1805  -7.1720  -6.2805  -6.2699  -6.2563  -6.2446
    -5.8912  -5.8824  -5.8379  -5.8191  -4.7097  -4.7059  -4.6413  -4.6362
    -3.6175  -3.6131  -3.5462  -3.5413  -3.0324  -3.0302  -2.8613  -2.8562
    -2.6913  -2.6865  -2.6498  -2.6455  -1.8765  -1.8693  -1.7523  -1.7378
    -1.5085  -1.4725  -1.4697  -1.4378  -1.2784  -1.2773  -1.2522  -1.2379
    -0.7833  -0.7605  -0.7339  -0.6252  -0.5667  -0.4822  -0.4757  -0.4469
    -0.3754  -0.3080  -0.0080   0.0138   0.1461   0.1924   0.2193   0.2518
     0.2639   0.3198   0.3419   0.3779   0.6391   0.6565   0.7580   0.8182
     0.9268   0.9370   1.0301   1.0415   1.0706   1.1096   1.1150   1.1581
     1.2113   1.2498   1.2738   1.3047   1.3231   1.3411   1.3777   1.3901
     1.4251   1.4976   1.5085   1.5216   1.5688   1.5926   1.6169   1.6789
     1.7140   1.7402   1.7561   1.8119

     occupation numbers 
     1.0000   1.0000   1.0000   1.0000   1.0000   1.0000   1.0000   1.0000
     1.0000   1.0000   1.0000   1.0000   1.0000   1.0000   1.0000   1.0000
     1.0000   1.0000   1.0000   1.0000   1.0000   1.0000   1.0000   1.0000
     1.0000   1.0000   1.0000   1.0000   1.0000   1.0000   1.0000   1.0000
     1.0000   1.0000   1.0000   1.0000   1.0000   1.0000   1.0000   1.0000
     1.0000   1.0000   1.0000   1.0000   1.0000   1.0000   1.0000   1.0000
     1.0000   1.0000   1.0000   1.0000   1.0000   1.0000   1.0000   1.0000
     1.0000   1.0000   1.0000   1.0000   1.0000   1.0000   1.0000   1.0000
     1.0000   1.0000   1.0000   1.0000   1.0000   1.0000   1.0000   1.0000
     1.0000   1.0000   1.0000   1.0000   1.0000   1.0000   1.0000   1.0000
     1.0000   1.0000   1.0000   1.0000   1.0000   1.0000   1.0000   1.0000
     1.0000   1.0000   1.0000   1.0000   1.0000   1.0000   1.0000   1.0000
     1.0000   1.0000   1.0000   1.0000   1.0000   1.0000   1.0000   1.0000
     1.0000   1.0000   1.0000   1.0000   1.0000   1.0000   1.0000   1.0000
     1.0000   1.0000   1.0000   1.0000   1.0000   1.0000   1.0000   1.0000
     1.0000   1.0000   1.0000   1.0000   1.0000   1.0000   1.0000   1.0000
     1.0000   1.0000   1.0000   1.0000   1.0000   1.0000   1.0000   1.0000
     1.0000   1.0000   1.0000   1.0000   1.0000   1.0000   1.0000   1.0000
     1.0000   1.0000   1.0000   1.0000

          k = 0.2500 0.2371-0.2076 (133242 PWs)   bands (ev):

   -16.9704 -16.9704 -16.9665 -16.9665 -12.6432 -12.6432 -12.6177 -12.6177
   -12.5720 -12.5720 -12.5568 -12.5568 -12.5478 -12.5478 -12.5259 -12.5259
   -12.5214 -12.5214 -12.5131 -12.5131 -12.5083 -12.5083 -12.4946 -12.4946
   -12.4933 -12.4933 -12.4578 -12.4578 -11.6354 -11.6354 -11.2427 -11.2427
   -11.0368 -11.0368 -10.9903 -10.9903 -10.9239 -10.9239 -10.8657 -10.8657
   -10.7872 -10.7872 -10.7522 -10.7522  -9.4023  -9.4023  -9.3587  -9.3587
    -9.1149  -9.1149  -8.7120  -8.7120  -8.1037  -8.1037  -8.0450  -8.0450
    -7.2444  -7.2444  -7.1758  -7.1758  -6.2762  -6.2762  -6.2494  -6.2494
    -5.8864  -5.8864  -5.8289  -5.8289  -4.7078  -4.7078  -4.6388  -4.6388
    -3.6154  -3.6154  -3.5437  -3.5437  -3.0313  -3.0313  -2.8586  -2.8586
    -2.6891  -2.6891  -2.6476  -2.6476  -1.8732  -1.8732  -1.7445  -1.7445
    -1.4908  -1.4908  -1.4532  -1.4532  -1.2745  -1.2745  -1.2489  -1.2489
    -0.7739  -0.7739  -0.6916  -0.6916  -0.5130  -0.5130  -0.4708  -0.4708
    -0.3288  -0.3288   0.0023   0.0023   0.1626   0.1626   0.2391   0.2391
     0.2925   0.2925   0.3613   0.3613   0.6492   0.6492   0.7881   0.7881
     0.9315   0.9315   1.0454   1.0454   1.0755   1.0755   1.1417   1.1417
     1.2258   1.2258   1.2910   1.2910   1.3414   1.3414   1.3706   1.3706
     1.4565   1.4565   1.5139   1.5139   1.5882   1.5882   1.6554   1.6554
     1.7245   1.7245   1.7846   1.7846

     occupation numbers 
     1.0000   1.0000   1.0000   1.0000   1.0000   1.0000   1.0000   1.0000
     1.0000   1.0000   1.0000   1.0000   1.0000   1.0000   1.0000   1.0000
     1.0000   1.0000   1.0000   1.0000   1.0000   1.0000   1.0000   1.0000
     1.0000   1.0000   1.0000   1.0000   1.0000   1.0000   1.0000   1.0000
     1.0000   1.0000   1.0000   1.0000   1.0000   1.0000   1.0000   1.0000
     1.0000   1.0000   1.0000   1.0000   1.0000   1.0000   1.0000   1.0000
     1.0000   1.0000   1.0000   1.0000   1.0000   1.0000   1.0000   1.0000
     1.0000   1.0000   1.0000   1.0000   1.0000   1.0000   1.0000   1.0000
     1.0000   1.0000   1.0000   1.0000   1.0000   1.0000   1.0000   1.0000
     1.0000   1.0000   1.0000   1.0000   1.0000   1.0000   1.0000   1.0000
     1.0000   1.0000   1.0000   1.0000   1.0000   1.0000   1.0000   1.0000
     1.0000   1.0000   1.0000   1.0000   1.0000   1.0000   1.0000   1.0000
     1.0000   1.0000   1.0000   1.0000   1.0000   1.0000   1.0000   1.0000
     1.0000   1.0000   1.0000   1.0000   1.0000   1.0000   1.0000   1.0000
     1.0000   1.0000   1.0000   1.0000   1.0000   1.0000   1.0000   1.0000
     1.0000   1.0000   1.0000   1.0000   1.0000   1.0000   1.0000   1.0000
     1.0000   1.0000   1.0000   1.0000   1.0000   1.0000   1.0000   1.0000
     1.0000   1.0000   1.0000   1.0000   1.0000   1.0000   1.0000   1.0000
     1.0000   1.0000   1.0000   1.0000

          k = 0.2500-0.4743 0.0000 (133156 PWs)   bands (ev):

   -16.9686 -16.9686 -16.9682 -16.9682 -12.6061 -12.6061 -12.6048 -12.6048
   -12.5888 -12.5888 -12.5869 -12.5869 -12.5383 -12.5383 -12.5308 -12.5308
   -12.5187 -12.5187 -12.5141 -12.5141 -12.5075 -12.5075 -12.5065 -12.5065
   -12.4713 -12.4713 -12.4711 -12.4711 -11.4757 -11.4757 -11.4540 -11.4540
   -11.0552 -11.0552 -11.0056 -11.0056 -10.8856 -10.8856 -10.8394 -10.8394
   -10.8191 -10.8191 -10.7741 -10.7741  -9.3668  -9.3668  -9.3474  -9.3474
    -8.8993  -8.8993  -8.8934  -8.8934  -8.0702  -8.0702  -8.0439  -8.0439
    -7.2408  -7.2408  -7.1853  -7.1853  -6.2733  -6.2733  -6.2503  -6.2503
    -5.8907  -5.8907  -5.8335  -5.8335  -4.7105  -4.7105  -4.6482  -4.6482
    -3.6916  -3.6916  -3.6172  -3.6172  -2.9576  -2.9576  -2.9257  -2.9257
    -2.7061  -2.7061  -2.6745  -2.6745  -1.8305  -1.8305  -1.7447  -1.7447
    -1.4741  -1.4741  -1.3876  -1.3876  -1.3421  -1.3421  -1.2661  -1.2661
    -0.7194  -0.7194  -0.5562  -0.5562  -0.5053  -0.5053  -0.4239  -0.4239
    -0.1653  -0.1653  -0.1304  -0.1304   0.1271   0.1271   0.1625   0.1625
     0.2283   0.2283   0.2748   0.2748   0.7902   0.7902   0.8187   0.8187
     0.9251   0.9251   0.9897   0.9897   1.1099   1.1099   1.1590   1.1590
     1.2296   1.2296   1.3229   1.3229   1.3300   1.3300   1.3801   1.3801
     1.4582   1.4582   1.4891   1.4891   1.5935   1.5935   1.6826   1.6826
     1.7262   1.7262   1.8012   1.8012

     occupation numbers 
     1.0000   1.0000   1.0000   1.0000   1.0000   1.0000   1.0000   1.0000
     1.0000   1.0000   1.0000   1.0000   1.0000   1.0000   1.0000   1.0000
     1.0000   1.0000   1.0000   1.0000   1.0000   1.0000   1.0000   1.0000
     1.0000   1.0000   1.0000   1.0000   1.0000   1.0000   1.0000   1.0000
     1.0000   1.0000   1.0000   1.0000   1.0000   1.0000   1.0000   1.0000
     1.0000   1.0000   1.0000   1.0000   1.0000   1.0000   1.0000   1.0000
     1.0000   1.0000   1.0000   1.0000   1.0000   1.0000   1.0000   1.0000
     1.0000   1.0000   1.0000   1.0000   1.0000   1.0000   1.0000   1.0000
     1.0000   1.0000   1.0000   1.0000   1.0000   1.0000   1.0000   1.0000
     1.0000   1.0000   1.0000   1.0000   1.0000   1.0000   1.0000   1.0000
     1.0000   1.0000   1.0000   1.0000   1.0000   1.0000   1.0000   1.0000
     1.0000   1.0000   1.0000   1.0000   1.0000   1.0000   1.0000   1.0000
     1.0000   1.0000   1.0000   1.0000   1.0000   1.0000   1.0000   1.0000
     1.0000   1.0000   1.0000   1.0000   1.0000   1.0000   1.0000   1.0000
     1.0000   1.0000   1.0000   1.0000   1.0000   1.0000   1.0000   1.0000
     1.0000   1.0000   1.0000   1.0000   1.0000   1.0000   1.0000   1.0000
     1.0000   1.0000   1.0000   1.0000   1.0000   1.0000   1.0000   1.0000
     1.0000   1.0000   1.0000   1.0000   1.0000   1.0000   1.0000   1.0000
     1.0000   1.0000   1.0000   1.0000

          k = 0.2500-0.4743-0.2076 (133184 PWs)   bands (ev):

   -16.9686 -16.9686 -16.9682 -16.9682 -12.6057 -12.6057 -12.6053 -12.6053
   -12.5885 -12.5885 -12.5871 -12.5871 -12.5382 -12.5382 -12.5311 -12.5311
   -12.5171 -12.5171 -12.5157 -12.5157 -12.5072 -12.5072 -12.5067 -12.5067
   -12.4712 -12.4712 -12.4712 -12.4712 -11.4692 -11.4692 -11.4610 -11.4610
   -11.0336 -11.0336 -11.0320 -11.0320 -10.8648 -10.8648 -10.8621 -10.8621
   -10.8034 -10.8034 -10.7825 -10.7825  -9.3663  -9.3663  -9.3479  -9.3479
    -8.8971  -8.8971  -8.8956  -8.8956  -8.0702  -8.0702  -8.0440  -8.0440
    -7.2407  -7.2407  -7.1854  -7.1854  -6.2732  -6.2732  -6.2504  -6.2504
    -5.8892  -5.8892  -5.8349  -5.8349  -4.7104  -4.7104  -4.6483  -4.6483
    -3.6914  -3.6914  -3.6173  -3.6173  -2.9571  -2.9571  -2.9261  -2.9261
    -2.7062  -2.7062  -2.6744  -2.6744  -1.8303  -1.8303  -1.7448  -1.7448
    -1.4645  -1.4645  -1.3981  -1.3981  -1.3365  -1.3365  -1.2729  -1.2729
    -0.7194  -0.7194  -0.5569  -0.5569  -0.4986  -0.4986  -0.4284  -0.4284
    -0.1646  -0.1646  -0.1394  -0.1394   0.1443   0.1443   0.1583   0.1583
     0.2475   0.2475   0.2567   0.2567   0.7866   0.7866   0.8150   0.8150
     0.9413   0.9413   0.9715   0.9715   1.1350   1.1350   1.1392   1.1392
     1.2329   1.2329   1.3067   1.3067   1.3353   1.3353   1.3688   1.3688
     1.4691   1.4691   1.4896   1.4896   1.6223   1.6223   1.6463   1.6463
     1.7493   1.7493   1.7915   1.7915

     occupation numbers 
     1.0000   1.0000   1.0000   1.0000   1.0000   1.0000   1.0000   1.0000
     1.0000   1.0000   1.0000   1.0000   1.0000   1.0000   1.0000   1.0000
     1.0000   1.0000   1.0000   1.0000   1.0000   1.0000   1.0000   1.0000
     1.0000   1.0000   1.0000   1.0000   1.0000   1.0000   1.0000   1.0000
     1.0000   1.0000   1.0000   1.0000   1.0000   1.0000   1.0000   1.0000
     1.0000   1.0000   1.0000   1.0000   1.0000   1.0000   1.0000   1.0000
     1.0000   1.0000   1.0000   1.0000   1.0000   1.0000   1.0000   1.0000
     1.0000   1.0000   1.0000   1.0000   1.0000   1.0000   1.0000   1.0000
     1.0000   1.0000   1.0000   1.0000   1.0000   1.0000   1.0000   1.0000
     1.0000   1.0000   1.0000   1.0000   1.0000   1.0000   1.0000   1.0000
     1.0000   1.0000   1.0000   1.0000   1.0000   1.0000   1.0000   1.0000
     1.0000   1.0000   1.0000   1.0000   1.0000   1.0000   1.0000   1.0000
     1.0000   1.0000   1.0000   1.0000   1.0000   1.0000   1.0000   1.0000
     1.0000   1.0000   1.0000   1.0000   1.0000   1.0000   1.0000   1.0000
     1.0000   1.0000   1.0000   1.0000   1.0000   1.0000   1.0000   1.0000
     1.0000   1.0000   1.0000   1.0000   1.0000   1.0000   1.0000   1.0000
     1.0000   1.0000   1.0000   1.0000   1.0000   1.0000   1.0000   1.0000
     1.0000   1.0000   1.0000   1.0000   1.0000   1.0000   1.0000   1.0000
     1.0000   1.0000   1.0000   1.0000

          k =-0.5000 0.0000 0.0000 (133326 PWs)   bands (ev):

   -16.9711 -16.9711 -16.9657 -16.9657 -12.6627 -12.6627 -12.6251 -12.6251
   -12.5623 -12.5623 -12.5438 -12.5438 -12.5401 -12.5401 -12.5367 -12.5367
   -12.5272 -12.5272 -12.5155 -12.5155 -12.5057 -12.5057 -12.5025 -12.5025
   -12.4816 -12.4816 -12.4574 -12.4574 -11.6815 -11.6815 -11.0792 -11.0792
   -11.0521 -11.0521 -10.9651 -10.9651 -10.9358 -10.9358 -10.9123 -10.9123
   -10.8257 -10.8257 -10.7279 -10.7279  -9.4226  -9.4226  -9.3948  -9.3948
    -9.2057  -9.2057  -8.6312  -8.6312  -8.0938  -8.0938  -8.0857  -8.0857
    -7.2013  -7.2013  -7.1852  -7.1852  -6.2662  -6.2662  -6.2562  -6.2562
    -5.8627  -5.8627  -5.8426  -5.8426  -4.6760  -4.6760  -4.6706  -4.6706
    -3.5053  -3.5053  -3.5005  -3.5005  -2.9602  -2.9602  -2.9528  -2.9528
    -2.6450  -2.6450  -2.6370  -2.6370  -1.8702  -1.8702  -1.8617  -1.8617
    -1.4867  -1.4867  -1.4650  -1.4650  -1.2662  -1.2662  -1.2202  -1.2202
    -0.8509  -0.8509  -0.7890  -0.7890  -0.5165  -0.5165  -0.4872  -0.4872
    -0.3774  -0.3774  -0.0907  -0.0907   0.1900   0.1900   0.2919   0.2919
     0.5056   0.5056   0.5631   0.5631   0.7145   0.7145   0.7640   0.7640
     0.8096   0.8096   0.9246   0.9246   0.9897   0.9897   1.0691   1.0691
     1.1453   1.1453   1.2969   1.2969   1.3434   1.3434   1.3824   1.3824
     1.4201   1.4201   1.4629   1.4629   1.5707   1.5707   1.7056   1.7056
     1.7525   1.7525   1.7660   1.7660

     occupation numbers 
     1.0000   1.0000   1.0000   1.0000   1.0000   1.0000   1.0000   1.0000
     1.0000   1.0000   1.0000   1.0000   1.0000   1.0000   1.0000   1.0000
     1.0000   1.0000   1.0000   1.0000   1.0000   1.0000   1.0000   1.0000
     1.0000   1.0000   1.0000   1.0000   1.0000   1.0000   1.0000   1.0000
     1.0000   1.0000   1.0000   1.0000   1.0000   1.0000   1.0000   1.0000
     1.0000   1.0000   1.0000   1.0000   1.0000   1.0000   1.0000   1.0000
     1.0000   1.0000   1.0000   1.0000   1.0000   1.0000   1.0000   1.0000
     1.0000   1.0000   1.0000   1.0000   1.0000   1.0000   1.0000   1.0000
     1.0000   1.0000   1.0000   1.0000   1.0000   1.0000   1.0000   1.0000
     1.0000   1.0000   1.0000   1.0000   1.0000   1.0000   1.0000   1.0000
     1.0000   1.0000   1.0000   1.0000   1.0000   1.0000   1.0000   1.0000
     1.0000   1.0000   1.0000   1.0000   1.0000   1.0000   1.0000   1.0000
     1.0000   1.0000   1.0000   1.0000   1.0000   1.0000   1.0000   1.0000
     1.0000   1.0000   1.0000   1.0000   1.0000   1.0000   1.0000   1.0000
     1.0000   1.0000   1.0000   1.0000   1.0000   1.0000   1.0000   1.0000
     1.0000   1.0000   1.0000   1.0000   1.0000   1.0000   1.0000   1.0000
     1.0000   1.0000   1.0000   1.0000   1.0000   1.0000   1.0000   1.0000
     1.0000   1.0000   1.0000   1.0000   1.0000   1.0000   1.0000   1.0000
     1.0000   1.0000   1.0000   1.0000

          k =-0.5000 0.0000-0.2076 (133324 PWs)   bands (ev):

   -16.9711 -16.9711 -16.9657 -16.9657 -12.6627 -12.6627 -12.6251 -12.6251
   -12.5622 -12.5622 -12.5440 -12.5440 -12.5407 -12.5407 -12.5358 -12.5358
   -12.5273 -12.5273 -12.5155 -12.5155 -12.5056 -12.5056 -12.5025 -12.5025
   -12.4816 -12.4816 -12.4574 -12.4574 -11.6814 -11.6814 -11.0794 -11.0794
   -11.0518 -11.0518 -10.9617 -10.9617 -10.9464 -10.9464 -10.9034 -10.9034
   -10.8278 -10.8278 -10.7277 -10.7277  -9.4185  -9.4185  -9.3994  -9.3994
    -9.2051  -9.2051  -8.6312  -8.6312  -8.0908  -8.0908  -8.0888  -8.0888
    -7.2012  -7.2012  -7.1854  -7.1854  -6.2659  -6.2659  -6.2565  -6.2565
    -5.8586  -5.8586  -5.8468  -5.8468  -4.6738  -4.6738  -4.6729  -4.6729
    -3.5057  -3.5057  -3.5003  -3.5003  -2.9589  -2.9589  -2.9539  -2.9539
    -2.6469  -2.6469  -2.6350  -2.6350  -1.8713  -1.8713  -1.8605  -1.8605
    -1.4849  -1.4849  -1.4665  -1.4665  -1.2667  -1.2667  -1.2218  -1.2218
    -0.8260  -0.8260  -0.8129  -0.8129  -0.5341  -0.5341  -0.4647  -0.4647
    -0.3790  -0.3790  -0.0969  -0.0969   0.2318   0.2318   0.2436   0.2436
     0.5295   0.5295   0.5508   0.5508   0.7104   0.7104   0.7559   0.7559
     0.8122   0.8122   0.9448   0.9448   0.9831   0.9831   1.0581   1.0581
     1.1702   1.1702   1.2610   1.2610   1.3507   1.3507   1.3944   1.3944
     1.4098   1.4098   1.4590   1.4590   1.6004   1.6004   1.6847   1.6847
     1.7585   1.7585   1.7624   1.7624

     occupation numbers 
     1.0000   1.0000   1.0000   1.0000   1.0000   1.0000   1.0000   1.0000
     1.0000   1.0000   1.0000   1.0000   1.0000   1.0000   1.0000   1.0000
     1.0000   1.0000   1.0000   1.0000   1.0000   1.0000   1.0000   1.0000
     1.0000   1.0000   1.0000   1.0000   1.0000   1.0000   1.0000   1.0000
     1.0000   1.0000   1.0000   1.0000   1.0000   1.0000   1.0000   1.0000
     1.0000   1.0000   1.0000   1.0000   1.0000   1.0000   1.0000   1.0000
     1.0000   1.0000   1.0000   1.0000   1.0000   1.0000   1.0000   1.0000
     1.0000   1.0000   1.0000   1.0000   1.0000   1.0000   1.0000   1.0000
     1.0000   1.0000   1.0000   1.0000   1.0000   1.0000   1.0000   1.0000
     1.0000   1.0000   1.0000   1.0000   1.0000   1.0000   1.0000   1.0000
     1.0000   1.0000   1.0000   1.0000   1.0000   1.0000   1.0000   1.0000
     1.0000   1.0000   1.0000   1.0000   1.0000   1.0000   1.0000   1.0000
     1.0000   1.0000   1.0000   1.0000   1.0000   1.0000   1.0000   1.0000
     1.0000   1.0000   1.0000   1.0000   1.0000   1.0000   1.0000   1.0000
     1.0000   1.0000   1.0000   1.0000   1.0000   1.0000   1.0000   1.0000
     1.0000   1.0000   1.0000   1.0000   1.0000   1.0000   1.0000   1.0000
     1.0000   1.0000   1.0000   1.0000   1.0000   1.0000   1.0000   1.0000
     1.0000   1.0000   1.0000   1.0000   1.0000   1.0000   1.0000   1.0000
     1.0000   1.0000   1.0000   1.0000

          k =-0.5000 0.2371 0.0000 (133168 PWs)   bands (ev):

   -16.9702 -16.9702 -16.9664 -16.9664 -12.6462 -12.6462 -12.6160 -12.6160
   -12.5733 -12.5733 -12.5535 -12.5535 -12.5387 -12.5387 -12.5344 -12.5344
   -12.5228 -12.5228 -12.5134 -12.5134 -12.5087 -12.5087 -12.4948 -12.4948
   -12.4934 -12.4934 -12.4579 -12.4579 -11.6173 -11.6173 -11.2053 -11.2053
   -11.0764 -11.0764 -10.9939 -10.9939 -10.9229 -10.9229 -10.8869 -10.8869
   -10.8112 -10.8112 -10.7467 -10.7467  -9.3866  -9.3866  -9.3749  -9.3749
    -9.1052  -9.1052  -8.6962  -8.6962  -8.0757  -8.0757  -8.0707  -8.0707
    -7.2033  -7.2033  -7.1915  -7.1915  -6.2634  -6.2634  -6.2565  -6.2565
    -5.8667  -5.8667  -5.8489  -5.8489  -4.6823  -4.6823  -4.6768  -4.6768
    -3.5882  -3.5882  -3.5821  -3.5821  -2.9453  -2.9453  -2.9407  -2.9407
    -2.6696  -2.6696  -2.6647  -2.6647  -1.8481  -1.8481  -1.8402  -1.8402
    -1.4625  -1.4625  -1.4409  -1.4409  -1.2900  -1.2900  -1.2553  -1.2553
    -0.7804  -0.7804  -0.6889  -0.6889  -0.5117  -0.5117  -0.4607  -0.4607
    -0.3308  -0.3308   0.0540   0.0540   0.1436   0.1436   0.2589   0.2589
     0.3907   0.3907   0.4496   0.4496   0.6612   0.6612   0.7060   0.7060
     0.7873   0.7873   0.9883   0.9883   1.0231   1.0231   1.1397   1.1397
     1.2110   1.2110   1.2620   1.2620   1.3441   1.3441   1.4014   1.4014
     1.4347   1.4347   1.5250   1.5250   1.5894   1.5894   1.6758   1.6758
     1.7450   1.7450   1.7793   1.7793

     occupation numbers 
     1.0000   1.0000   1.0000   1.0000   1.0000   1.0000   1.0000   1.0000
     1.0000   1.0000   1.0000   1.0000   1.0000   1.0000   1.0000   1.0000
     1.0000   1.0000   1.0000   1.0000   1.0000   1.0000   1.0000   1.0000
     1.0000   1.0000   1.0000   1.0000   1.0000   1.0000   1.0000   1.0000
[...]
     atom   71 type  1   force =     0.00000000    0.00000000    0.00000000
     atom   72 type  1   force =     0.00000000    0.00000000    0.00000000
     atom   73 type  1   force =     0.00000000    0.00000000    0.00000000
     atom   74 type  1   force =     0.00000000    0.00000000    0.00000000
     atom   75 type  1   force =     0.00000000    0.00000000    0.00000000
     atom   76 type  1   force =     0.00000000    0.00000000    0.00000000
     atom   77 type  1   force =     0.00000000    0.00000000    0.00000000
     atom   78 type  1   force =     0.00000000    0.00000000    0.00000000
     atom   79 type  1   force =     0.00000000    0.00000000    0.00000000
     atom   80 type  1   force =     0.00000000    0.00000000    0.00000000
     atom   81 type  5   force =     0.00000000    0.00000000    0.00000000
     atom   82 type  5   force =     0.00000000    0.00000000    0.00000000
     atom   83 type  5   force =     0.00000000    0.00000000    0.00000000
     atom   84 type  5   force =     0.00000000    0.00000000    0.00000000
     The SCF correction term to forces
     atom    1 type  3   force =    -0.00000001    0.00000000   -0.00000002
     atom    2 type  3   force =     0.00000001   -0.00000000   -0.00000002
     atom    3 type  3   force =     0.00000001    0.00000000    0.00000002
     atom    4 type  3   force =    -0.00000001   -0.00000000    0.00000002
     atom    5 type  3   force =     0.00000002    0.00000000    0.00000000
     atom    6 type  3   force =    -0.00000002   -0.00000000    0.00000000
     atom    7 type  3   force =    -0.00000002    0.00000000   -0.00000000
     atom    8 type  3   force =     0.00000002   -0.00000000   -0.00000000
     atom    9 type  3   force =     0.00000000   -0.00000001    0.00000001
     atom   10 type  3   force =    -0.00000000    0.00000001    0.00000001
     atom   11 type  3   force =    -0.00000000   -0.00000001   -0.00000001
     atom   12 type  3   force =     0.00000000    0.00000001   -0.00000001
     atom   13 type  3   force =    -0.00000000   -0.00000001    0.00000001
     atom   14 type  3   force =     0.00000000    0.00000001    0.00000001
     atom   15 type  3   force =     0.00000000   -0.00000001   -0.00000001
     atom   16 type  3   force =    -0.00000000    0.00000001   -0.00000001
     atom   17 type  3   force =     0.00000001   -0.00000000    0.00000000
     atom   18 type  3   force =    -0.00000001    0.00000000    0.00000000
     atom   19 type  3   force =    -0.00000001   -0.00000000   -0.00000000
     atom   20 type  3   force =     0.00000001    0.00000000   -0.00000000
     atom   21 type  3   force =     0.00000000   -0.00000000   -0.00000000
     atom   22 type  3   force =    -0.00000000    0.00000000   -0.00000000
     atom   23 type  3   force =    -0.00000000   -0.00000000    0.00000000
     atom   24 type  3   force =     0.00000000    0.00000000    0.00000000
     atom   25 type  3   force =    -0.00000000   -0.00000000   -0.00000000
     atom   26 type  3   force =     0.00000000    0.00000000   -0.00000000
     atom   27 type  3   force =     0.00000000   -0.00000000    0.00000000
     atom   28 type  3   force =    -0.00000000    0.00000000    0.00000000
     atom   29 type  3   force =     0.00000000    0.00000000   -0.00000001
     atom   30 type  3   force =    -0.00000000   -0.00000000   -0.00000001
     atom   31 type  3   force =    -0.00000000    0.00000000    0.00000001
     atom   32 type  3   force =     0.00000000   -0.00000000    0.00000001
     atom   33 type  3   force =    -0.00000000   -0.00000001    0.00000001
     atom   34 type  3   force =     0.00000000    0.00000001    0.00000001
     atom   35 type  3   force =     0.00000000   -0.00000001   -0.00000001
     atom   36 type  3   force =    -0.00000000    0.00000001   -0.00000001
     atom   37 type  3   force =     0.00000001   -0.00000000    0.00000001
     atom   38 type  3   force =    -0.00000001    0.00000000    0.00000001
     atom   39 type  3   force =    -0.00000001   -0.00000000   -0.00000001
     atom   40 type  3   force =     0.00000001    0.00000000   -0.00000001
     atom   41 type  3   force =    -0.00000000    0.00000000    0.00000001
     atom   42 type  3   force =     0.00000000   -0.00000000    0.00000001
     atom   43 type  3   force =     0.00000000    0.00000000   -0.00000001
     atom   44 type  3   force =    -0.00000000   -0.00000000   -0.00000001
     atom   45 type  6   force =    -0.00000004   -0.00000000   -0.00000001
     atom   46 type  6   force =     0.00000004    0.00000000   -0.00000001
     atom   47 type  6   force =     0.00000004   -0.00000000    0.00000001
     atom   48 type  6   force =    -0.00000004    0.00000000    0.00000001
     atom   49 type  2   force =    -0.00000001    0.00000002    0.00000000
     atom   50 type  2   force =     0.00000001   -0.00000002    0.00000000
     atom   51 type  2   force =     0.00000001    0.00000002   -0.00000000
     atom   52 type  2   force =    -0.00000001   -0.00000002   -0.00000000
     atom   53 type  2   force =    -0.00000003   -0.00000005    0.00000005
     atom   54 type  2   force =     0.00000003    0.00000005    0.00000005
     atom   55 type  2   force =     0.00000003   -0.00000005   -0.00000005
     atom   56 type  2   force =    -0.00000003    0.00000005   -0.00000005
     atom   57 type  2   force =    -0.00000000   -0.00000003    0.00000003
     atom   58 type  2   force =     0.00000000    0.00000003    0.00000003
     atom   59 type  2   force =     0.00000000   -0.00000003   -0.00000003
     atom   60 type  2   force =    -0.00000000    0.00000003   -0.00000003
     atom   61 type  2   force =    -0.00000001   -0.00000003   -0.00000002
     atom   62 type  2   force =     0.00000001    0.00000003   -0.00000002
     atom   63 type  2   force =     0.00000001   -0.00000003    0.00000002
     atom   64 type  2   force =    -0.00000001    0.00000003    0.00000002
     atom   65 type  4   force =    -0.00000001    0.00000005    0.00000004
     atom   66 type  4   force =     0.00000001   -0.00000005    0.00000004
     atom   67 type  4   force =     0.00000001    0.00000005   -0.00000004
     atom   68 type  4   force =    -0.00000001   -0.00000005   -0.00000004
     atom   69 type  1   force =    -0.00000002    0.00000001    0.00000001
     atom   70 type  1   force =     0.00000002   -0.00000001    0.00000001
     atom   71 type  1   force =     0.00000002    0.00000001   -0.00000001
     atom   72 type  1   force =    -0.00000002   -0.00000001   -0.00000001
     atom   73 type  1   force =    -0.00000000   -0.00000000    0.00000002
     atom   74 type  1   force =     0.00000000    0.00000000    0.00000002
     atom   75 type  1   force =     0.00000000   -0.00000000   -0.00000002
     atom   76 type  1   force =    -0.00000000    0.00000000   -0.00000002
     atom   77 type  1   force =     0.00000002   -0.00000003    0.00000003
     atom   78 type  1   force =    -0.00000002    0.00000003    0.00000003
     atom   79 type  1   force =    -0.00000002   -0.00000003   -0.00000003
     atom   80 type  1   force =     0.00000002    0.00000003   -0.00000003
     atom   81 type  5   force =    -0.00000001   -0.00000004    0.00000005
     atom   82 type  5   force =     0.00000001    0.00000004    0.00000005
     atom   83 type  5   force =     0.00000001   -0.00000004   -0.00000005
     atom   84 type  5   force =    -0.00000001    0.00000004   -0.00000005

     Dispersion contribution to forces:
     atom    1 type  3   force =    -0.00067517   -0.00258201   -0.00112420
     atom    2 type  3   force =     0.00067517    0.00258201   -0.00112420
     atom    3 type  3   force =     0.00067517   -0.00258201    0.00112420
     atom    4 type  3   force =    -0.00067517    0.00258201    0.00112420
     atom    5 type  3   force =     0.00259998   -0.00175735    0.00004403
     atom    6 type  3   force =    -0.00259998    0.00175735    0.00004403
     atom    7 type  3   force =    -0.00259998   -0.00175735   -0.00004403
     atom    8 type  3   force =     0.00259998    0.00175735   -0.00004403
     atom    9 type  3   force =    -0.00048744   -0.00032160    0.00048137
     atom   10 type  3   force =     0.00048744    0.00032160    0.00048137
     atom   11 type  3   force =     0.00048744   -0.00032160   -0.00048137
     atom   12 type  3   force =    -0.00048744    0.00032160   -0.00048137
     atom   13 type  3   force =    -0.00035356   -0.00027302    0.00146106
     atom   14 type  3   force =     0.00035356    0.00027302    0.00146106
     atom   15 type  3   force =     0.00035356   -0.00027302   -0.00146106
     atom   16 type  3   force =    -0.00035356    0.00027302   -0.00146106
     atom   17 type  3   force =     0.00178618    0.00083445    0.00010527
     atom   18 type  3   force =    -0.00178618   -0.00083445    0.00010527
     atom   19 type  3   force =    -0.00178618    0.00083445   -0.00010527
     atom   20 type  3   force =     0.00178618   -0.00083445   -0.00010527
     atom   21 type  3   force =     0.00059234   -0.00176510   -0.00074696
     atom   22 type  3   force =    -0.00059234    0.00176510   -0.00074696
     atom   23 type  3   force =    -0.00059234   -0.00176510    0.00074696
     atom   24 type  3   force =     0.00059234    0.00176510    0.00074696
     atom   25 type  3   force =    -0.00221741   -0.00020669    0.00060140
     atom   26 type  3   force =     0.00221741    0.00020669    0.00060140
     atom   27 type  3   force =     0.00221741   -0.00020669   -0.00060140
     atom   28 type  3   force =    -0.00221741    0.00020669   -0.00060140
     atom   29 type  3   force =     0.00117508    0.00215561   -0.00066473
     atom   30 type  3   force =    -0.00117508   -0.00215561   -0.00066473
     atom   31 type  3   force =    -0.00117508    0.00215561    0.00066473
     atom   32 type  3   force =     0.00117508   -0.00215561    0.00066473
     atom   33 type  3   force =    -0.00003454    0.00081604   -0.00052845
     atom   34 type  3   force =     0.00003454   -0.00081604   -0.00052845
     atom   35 type  3   force =     0.00003454    0.00081604    0.00052845
     atom   36 type  3   force =    -0.00003454   -0.00081604    0.00052845
     atom   37 type  3   force =     0.00061356   -0.00010738   -0.00016772
     atom   38 type  3   force =    -0.00061356    0.00010738   -0.00016772
     atom   39 type  3   force =    -0.00061356   -0.00010738    0.00016772
     atom   40 type  3   force =     0.00061356    0.00010738    0.00016772
     atom   41 type  3   force =     0.00014393    0.00012177   -0.00052603
     atom   42 type  3   force =    -0.00014393   -0.00012177   -0.00052603
     atom   43 type  3   force =    -0.00014393    0.00012177    0.00052603
     atom   44 type  3   force =     0.00014393   -0.00012177    0.00052603
     atom   45 type  6   force =     0.00021899    0.00010839    0.00013062
     atom   46 type  6   force =    -0.00021899   -0.00010839    0.00013062
     atom   47 type  6   force =    -0.00021899    0.00010839   -0.00013062
     atom   48 type  6   force =     0.00021899   -0.00010839   -0.00013062
     atom   49 type  2   force =     0.00115548    0.00005820   -0.00120255
     atom   50 type  2   force =    -0.00115548   -0.00005820   -0.00120255
     atom   51 type  2   force =    -0.00115548    0.00005820    0.00120255
     atom   52 type  2   force =     0.00115548   -0.00005820    0.00120255
     atom   53 type  2   force =    -0.00159832   -0.00191594    0.00020070
     atom   54 type  2   force =     0.00159832    0.00191594    0.00020070
     atom   55 type  2   force =     0.00159832   -0.00191594   -0.00020070
     atom   56 type  2   force =    -0.00159832    0.00191594   -0.00020070
     atom   57 type  2   force =     0.00225661   -0.00059302    0.00192744
     atom   58 type  2   force =    -0.00225661    0.00059302    0.00192744
     atom   59 type  2   force =    -0.00225661   -0.00059302   -0.00192744
     atom   60 type  2   force =     0.00225661    0.00059302   -0.00192744
     atom   61 type  2   force =    -0.00086847   -0.00002962   -0.00240206
     atom   62 type  2   force =     0.00086847    0.00002962   -0.00240206
     atom   63 type  2   force =     0.00086847   -0.00002962    0.00240206
     atom   64 type  2   force =    -0.00086847    0.00002962    0.00240206
     atom   65 type  4   force =    -0.00139073    0.00171792   -0.00199092
     atom   66 type  4   force =     0.00139073   -0.00171792   -0.00199092
     atom   67 type  4   force =     0.00139073    0.00171792    0.00199092
     atom   68 type  4   force =    -0.00139073   -0.00171792    0.00199092
     atom   69 type  1   force =    -0.00097849    0.00057889   -0.00207213
     atom   70 type  1   force =     0.00097849   -0.00057889   -0.00207213
     atom   71 type  1   force =     0.00097849    0.00057889    0.00207213
     atom   72 type  1   force =    -0.00097849   -0.00057889    0.00207213
     atom   73 type  1   force =    -0.00004624   -0.00221860   -0.00359470
     atom   74 type  1   force =     0.00004624    0.00221860   -0.00359470
     atom   75 type  1   force =     0.00004624   -0.00221860    0.00359470
     atom   76 type  1   force =    -0.00004624    0.00221860    0.00359470
     atom   77 type  1   force =     0.00067034    0.00382305    0.00015184
     atom   78 type  1   force =    -0.00067034   -0.00382305    0.00015184
     atom   79 type  1   force =    -0.00067034    0.00382305   -0.00015184
     atom   80 type  1   force =     0.00067034   -0.00382305   -0.00015184
     atom   81 type  5   force =     0.00129716   -0.00077167    0.00162091
     atom   82 type  5   force =    -0.00129716    0.00077167    0.00162091
     atom   83 type  5   force =    -0.00129716   -0.00077167   -0.00162091
     atom   84 type  5   force =     0.00129716    0.00077167   -0.00162091

     Total force =     0.000050     Total SCF correction =     0.000000

     Total Dispersion Force =     0.021874


     Computing stress (Cartesian axis) and pressure

          total   stress  (Ry/bohr**3)                   (kbar)     P=       -0.00
  -0.00000001   0.00000000   0.00000000           -0.00        0.00        0.00
   0.00000000  -0.00000000   0.00000000            0.00       -0.00        0.00
   0.00000000   0.00000000  -0.00000001            0.00        0.00       -0.00

     kinetic stress (kbar)   8073.81      0.00      0.00
                                0.00   8043.13      0.00
                                0.00      0.00   8093.08

     local   stress (kbar)  -2191.74     -0.00     -0.00
                               -0.00  -6253.85      0.00
                               -0.00      0.00  -3466.83

     nonloc. stress (kbar)    260.04      0.00      0.00
                                0.00    257.71      0.00
                                0.00      0.00    277.02

     hartree stress (kbar)   1765.29     -0.00     -0.00
                               -0.00   3342.51      0.00
                               -0.00      0.00   2244.62

     exc-cor stress (kbar)   1584.30     -0.00      0.00
                               -0.00   1585.65     -0.00
                                0.00     -0.00   1583.26

     corecor stress (kbar)  -3562.78      0.00     -0.00
                                0.00  -3560.28      0.00
                               -0.00      0.00  -3561.02

     ewald   stress (kbar)  -5914.58      0.00      0.00
                                0.00  -3403.12     -0.00
                                0.00     -0.00  -5154.57

     hubbard stress (kbar)      0.00      0.00      0.00
                                0.00      0.00      0.00
                                0.00      0.00      0.00

     DFT-D   stress (kbar)    -14.35      0.00     -0.00
                                0.00    -11.74     -0.00
                               -0.00     -0.00    -15.57

     XDM     stress (kbar)      0.00      0.00      0.00
                                0.00      0.00      0.00
                                0.00      0.00      0.00

     dft-nl  stress (kbar)      0.00      0.00      0.00
                                0.00      0.00      0.00
                                0.00      0.00      0.00

     TS-vdW  stress (kbar)      0.00      0.00      0.00
                                0.00      0.00      0.00
                                0.00      0.00      0.00

     MDB     stress (kbar)      0.00      0.00      0.00
                                0.00      0.00      0.00
                                0.00      0.00      0.00

     3D-RISM stress (kbar)      0.00      0.00      0.00
                                0.00      0.00      0.00
                                0.00      0.00      0.00


     Writing all to output data dir ./tmp/iba_pbbr3.save/ :
     XML data file, charge density, pseudopotentials, collected wavefunctions

     init_run     :      4.02s CPU      4.99s WALL (       1 calls)
     electrons    :    127.39s CPU    140.00s WALL (       1 calls)
     forces       :      2.60s CPU      2.72s WALL (       1 calls)
     force_london :      0.05s CPU      0.05s WALL (       1 calls)
     stress       :     32.14s CPU     33.48s WALL (       1 calls)
     stres_london :      0.07s CPU      0.08s WALL (       1 calls)

     Called by init_run:
     wfcinit      :      2.76s CPU      3.16s WALL (       1 calls)
     wfcinit:atom :      0.02s CPU      0.04s WALL (       3 calls)
     wfcinit:wfcr :      2.42s CPU      2.74s WALL (       3 calls)
     potinit      :      0.06s CPU      0.09s WALL (       1 calls)
     hinit0       :      0.86s CPU      1.33s WALL (       1 calls)

     Called by electrons:
     c_bands      :    116.20s CPU    127.05s WALL (      19 calls)
     sum_band     :      9.62s CPU     10.94s WALL (      19 calls)
     v_of_rho     :      1.13s CPU      1.33s WALL (      20 calls)
     v_h          :      0.07s CPU      0.09s WALL (      20 calls)
     v_xc         :      1.16s CPU      1.35s WALL (      22 calls)
     mix_rho      :      0.33s CPU      0.38s WALL (      19 calls)
     energy_londo :      0.05s CPU      0.05s WALL (       1 calls)

     Called by c_bands:
     init_us_2    :      7.28s CPU      7.39s WALL (     123 calls)
     cegterg      :    108.62s CPU    117.82s WALL (      57 calls)

     Called by sum_band:
     sum_band:wei :      0.00s CPU      0.01s WALL (      19 calls)
     sum_band:loo :      9.47s CPU     10.49s WALL (      19 calls)
     sum_band:buf :      0.44s CPU      0.44s WALL (      57 calls)
     sum_band:ini :      3.42s CPU      3.46s WALL (      57 calls)

     Called by *egterg:
     cdiaghg      :      7.97s CPU      8.30s WALL (     247 calls)
     cegterg:over :      8.42s CPU      8.83s WALL (     190 calls)
     cegterg:upda :      5.63s CPU      5.91s WALL (     190 calls)
     cegterg:last :      9.15s CPU      9.22s WALL (     128 calls)
     h_psi        :     76.16s CPU     83.76s WALL (     250 calls)
     g_psi        :      0.28s CPU      0.29s WALL (     190 calls)

     Called by h_psi:
     h_psi:calbec :     20.61s CPU     21.37s WALL (     250 calls)
     vloc_psi     :     32.24s CPU     38.40s WALL (     250 calls)
     add_vuspsi   :     22.53s CPU     22.74s WALL (     250 calls)

     General routines
     calbec       :     22.35s CPU     23.55s WALL (     265 calls)
     fft          :      1.12s CPU      1.79s WALL (     224 calls)
     ffts         :      0.02s CPU      0.04s WALL (      19 calls)
     fftw         :     34.27s CPU     40.89s WALL (   57884 calls)

     Parallel routines

     PWSCF        :   2m46.59s CPU   3m 4.74s WALL


   This run was terminated on:  23:51: 5  18May2025            

=------------------------------------------------------------------------------=
   JOB DONE.
=------------------------------------------------------------------------------=
